LAMMPS data file via write_data, version 7 Feb 2024, timestep = 25000, units = lj

3374 atoms
1 atom types

0 15 xlo xhi
0 15 ylo yhi
0 15 zlo zhi

Masses

1 1

Pair Coeffs # lj/cut

1 1 1

Atoms # atomic

706 1 0.11072024438981387 0.569548868245281 0.6383102457187659 0 0 0
2758 1 0.3810719030068062 14.34436291835089 0.492649159116937 0 -1 1
648 1 0.6314632694766114 1.1206228513569725 1.5534310789142274 0 1 0
2727 1 1.865339397304939 0.7158831671041588 0.11296582335086972 0 0 1
3068 1 2.90658628044942 0.5818797754252986 0.8016745214114773 0 0 1
682 1 1.4175689556043631 0.3911275281905051 1.234057781653946 0 0 0
3040 1 2.8003609854721914 0.466982146693088 14.725921069426068 0 0 0
9 1 3.7509596134788348 0.9862567854632114 14.778855596411736 0 0 -1
2976 1 4.07541736626397 0.8157598271924097 1.2760904203871437 0 1 1
3075 1 5.510137995082691 0.54124919673078 14.9252143301907 0 0 -1
319 1 4.551948421725258 1.0629778539137194 0.38230890065332607 0 1 0
583 1 5.075194423434447 0.20989289643116243 0.7819410977039758 0 1 0
618 1 4.611349185067781 0.20257418047321246 14.657463859859488 0 1 -1
3017 1 6.247791193163475 0.14038528644391973 1.0107418495785694 0 0 1
350 1 7.683219467336328 1.3346173092852587 0.2866275752521603 0 0 0
347 1 6.073474819012304 1.2728383810501596 14.425546647545834 0 0 -1
384 1 6.3262612161158005 1.4551904833075475 1.5559243768592073 0 0 0
56 1 7.650771951083965 0.3332643617813035 0.03727663550310344 0 0 0
357 1 8.087797990313394 0.5036159865338007 1.077366448048471 0 0 0
26 1 9.112824187935392 0.5370943006252122 0.9894731142844824 0 0 1
269 1 10.047370480857417 14.968505632630709 0.9375707822205269 0 0 0
29 1 12.633380071272157 14.569519079120054 1.076351585686799 0 0 0
3095 1 11.766023616592143 0.3717072271327685 1.4104046402971946 0 0 1
58 1 11.252131441714514 1.5187744298739525 1.2517918881883454 0 0 0
2323 1 10.933363513436055 0.44961967811771963 0.6596872661017176 0 1 1
3064 1 10.901506307407375 14.77009145577949 14.936945969895168 0 -1 -1
31 1 12.45160156602606 1.523201520838805 1.3310230577700919 0 1 0
2 1 13.562120519475906 0.1109185055222939 1.755514610351505 -1 0 0
3175 1 12.833447683368023 0.6419125856862331 1.1052521117855638 -1 0 1
2385 1 12.014571322499954 0.9300024912495849 0.6299341738913534 0 0 1
3067 1 14.528001187799095 1.1775623017946546 14.74943724006274 -1 0 0
775 1 14.031067285871906 0.8140339439274471 0.6546865755092097 -1 0 0
641 1 14.323692299840753 14.852608844342985 1.1685246714038304 -1 -1 0
3144 1 0.34390931114214984 1.662009879822727 0.04631790307087315 0 0 0
340 1 1.0827863302518999 1.2031525115238182 0.6925858403940856 0 0 0
38 1 14.904790173583988 1.6600200680036632 0.9609914162801719 -1 0 0
413 1 0.862173513299139 2.2835738987557326 0.710449788763229 0 0 0
69 1 1.8064279264538554 2.0384038001973117 0.38624668417009506 0 0 0
749 1 2.651725023312361 1.4190209789180144 0.2453622389106525 0 0 0
409 1 2.6902406832200914 2.5372897354483652 0.6358451527310061 0 0 0
3076 1 4.221624152630526 1.993553927115256 14.94960804056092 0 0 0
376 1 3.4973382389994003 1.6263875601343425 0.7055300552110398 0 0 0
3007 1 3.7122113359376905 2.7382260489942656 0.6030661440852686 0 1 1
3036 1 3.1901140613418906 2.2159791627858527 14.732217858109966 0 0 -1
3117 1 4.447028026439685 1.9896887762477102 0.9873729947916934 0 0 1
3057 1 5.056389103728315 2.7647370529126096 0.5164240802253611 0 0 0
351 1 4.649052977370924 2.9004176749982498 1.506362291057604 0 0 0
991 1 5.621520923386577 2.0684547583426456 1.2077530770659246 0 0 0
107 1 5.380134236161882 1.8015421005447858 0.18242152591214594 0 0 0
24 1 7.180389621840836 2.862559767959743 0.31375683164674456 0 0 0
2716 1 6.961102551736791 0.9294687531697416 0.8541213488822736 0 0 1
75 1 6.096268261823422 2.758447757616563 0.4209351940242032 0 0 1
84 1 6.351559299119877 1.7596026172684727 0.35607074796757127 0 0 0
21 1 8.453355954636105 1.4383418276723543 1.0411956332698948 0 0 0
3086 1 8.10744517054699 1.9922765702800855 14.395639166209895 0 0 0
50 1 8.176589536886139 2.2858132469737487 0.38569086463473273 0 0 0
55 1 7.820954500596696 2.9350573050387814 14.605722566133187 0 0 -1
3063 1 9.496695707677503 1.7541622864196122 0.7451146695740445 0 0 1
394 1 8.834736538304998 2.4016525620646636 1.359118161762454 0 0 0
426 1 9.972062068196319 2.8882753656871927 0.5639087029379729 0 0 0
61 1 10.561914871731872 2.040766295195694 0.6341949203486452 0 0 0
2387 1 11.857105993984078 2.4550086956361623 1.3931533162380023 0 0 1
2820 1 11.985373208855293 1.9168233345532761 0.43238362441130435 0 0 1
2417 1 11.18574814843046 1.5890029363324085 14.904404529429472 0 0 0
737 1 13.587463762305322 1.1268909905524633 1.6701824846737745 0 0 0
405 1 12.774232958013974 2.3469234888255457 0.9257010802691651 0 0 0
3104 1 12.07250077834638 2.111519803310358 2.4225235965366165 -1 0 0
93 1 13.0009530378762 1.478921986127103 0.489435292195412 0 0 0
411 1 14.47263237908128 2.5392994946902996 14.980141436032351 -1 0 -1
374 1 13.92380784768677 1.9712526454412074 0.80099913582353 -1 0 0
776 1 1.7532537267869446 4.104067386296931 0.8402839997993937 0 0 0
3105 1 1.9251874422912068 3.2254616383549526 0.30029901768563544 0 0 1
408 1 0.1656546530256772 3.222394920604514 0.19482638315600953 0 0 0
1083 1 1.0292052866708075 3.4250445163404533 0.7785661029420136 0 0 0
3103 1 0.46174395357387366 4.581396083843539 0.21319661377196972 0 0 1
441 1 3.1471427064915076 3.2805325558062384 14.940352624129009 0 0 -1
748 1 2.313259809269845 3.3426045287707207 1.2869633263608504 0 0 0
138 1 1.385951763196111 3.670016849503077 1.716533082861226 0 0 0
2772 1 3.309230060620791 3.385444984099465 1.169458950996181 0 0 1
72 1 2.6235076909154404 4.297530387363532 1.5618759354079133 0 0 0
2799 1 3.8176885618505327 4.585974269278793 1.0198734965821525 0 0 1
438 1 4.443460545306001 3.8975981758000526 1.5545618213189687 0 0 0
42 1 4.64901697125937 3.692861879047314 0.5422148883333077 0 0 1
687 1 5.678535160255732 3.834032027755471 0.5137558074538235 0 0 0
108 1 4.592156486535812 4.949028930398426 1.7739993526377853 0 0 0
3112 1 5.460990711933822 4.271612862827156 1.386002263924335 0 0 1
83 1 7.629212372043972 4.26468052805467 1.197226585460298 0 0 0
3047 1 6.504805561487341 3.513458050982108 14.847990305636639 0 0 -1
2742 1 7.366312300727614 3.869163083382362 0.11970031915019529 0 0 1
87 1 9.614667351007741 3.919276436152771 0.32883096889767544 0 0 0
388 1 7.986502715589459 4.511382894484513 14.702313593738914 0 0 -1
3126 1 9.08092128546809 3.548275341768548 1.0877108996952 0 0 0
155 1 10.423437187991969 3.6776398571259445 14.439321549245925 0 0 -1
392 1 10.148206801515848 3.8146254120958125 1.2090230644052093 0 0 0
3368 1 8.642192793940886 3.2380952072351015 0.1856245811904594 0 0 1
3100 1 10.836023107709561 3.6217400247291542 0.48875305585702866 0 0 0
1056 1 12.427968001801345 3.2488642026566517 14.728128562710342 -1 0 -1
2813 1 11.096100755956376 4.294482794171397 14.751396204468382 0 0 0
811 1 11.211836908653899 3.927870953521246 1.4182271713750696 -1 0 0
3102 1 13.404136096621928 2.743041808283857 0.10524574418562535 0 0 1
3171 1 13.002533892668339 3.5481214248758963 0.5111772158285228 0 0 0
119 1 12.408179126363079 4.23962917438008 14.99594579924099 0 0 -1
3133 1 11.954425187172328 3.470243408601977 0.8253954733043269 0 0 1
738 1 14.12063663025957 3.443644462496197 0.4258700120793731 -1 0 0
3168 1 13.636728571459415 4.546771295430383 14.684842227099086 0 0 -1
478 1 13.673715065501135 3.843182997725674 1.3929608063922656 -1 0 0
2794 1 0.8931115864520053 5.36926483819348 0.8482324966084733 0 0 1
469 1 1.2971351960307456 4.889090347464453 14.886243304052542 1 0 -1
139 1 1.5422053158023588 6.194632072460722 0.0784660594426059 0 0 0
2793 1 2.05970305559802 4.957540462009814 0.5354068903341513 0 0 1
2800 1 2.781211999508979 4.061510791039281 0.5769055381772267 0 0 1
1154 1 2.610363139333474 5.901131014053939 0.4377794657447233 0 0 0
3180 1 4.226743130392056 4.947772383848192 0.1623736412519047 0 0 1
2832 1 3.0898299208549056 4.98526492341773 0.3190233772106753 0 0 1
3110 1 5.213417545686347 4.786341468117733 0.4219915261999932 0 0 1
2797 1 4.600806210594398 5.442181714048388 0.9511329958972928 0 0 1
783 1 6.154946719745863 5.567651011377646 0.20973057265500045 0 0 0
102 1 5.8252077221215925 5.584212893607593 2.3152179815802825 0 0 0
113 1 7.096700371766428 5.706285794120785 2.0570274132447626 0 0 0
3155 1 6.103125371103371 4.96013060816015 1.0051588609672282 0 0 1
3157 1 7.268042144640272 4.992724266088752 0.6214455994864848 0 0 0
110 1 7.825188872576755 5.240794388843328 1.4450143171942005 0 0 0
3195 1 9.34368002787677 4.92885610573353 0.4932534739076689 0 0 0
3229 1 9.417409490289806 4.50947581562794 1.391442282543941 0 0 1
154 1 10.318089610574122 4.686205074996852 0.7571648139022664 0 0 0
190 1 10.705266039187697 5.582159993232863 1.3502318193161895 0 0 0
761 1 9.577703372060462 5.578993394557859 1.414852716668275 0 0 0
123 1 12.385149560383914 4.315783725376148 1.1799969772212058 0 0 0
192 1 10.358663828617171 4.556891048391456 1.908774404226617 0 0 0
2782 1 10.85340668999669 5.427189913489628 0.20360318423634172 0 0 1
118 1 12.633681464108674 5.29846819478306 0.31837173488084985 0 0 0
167 1 13.192981049655844 4.616109354694479 0.697149576461554 -1 0 0
158 1 12.41622832697021 5.399765601612348 1.2780807147280708 0 0 0
527 1 13.429487537412527 5.816194002224166 1.1554976003668878 0 0 0
773 1 14.023287394538249 5.261936104411289 0.5555043051210441 -1 0 0
400 1 14.45868156651223 4.390793375139129 0.4004711942412423 0 0 0
532 1 14.928483846811645 5.566009523549959 0.9309593753940628 0 0 0
814 1 0.6505294966461164 6.399595647278163 0.5785057738244668 0 0 0
473 1 0.8849367124557068 7.168243970351752 1.2325187853663715 1 0 0
501 1 0.7849996003564633 6.221498263455585 1.5446284746609613 1 0 0
819 1 2.092217260051433 6.998944208952209 0.2795098734547242 0 0 0
77 1 2.6726177136675644 7.482562789396546 14.66936276674506 0 0 -1
1112 1 1.954698469426439 7.320076804515539 1.3523551125882387 0 0 0
508 1 3.6551138298387857 5.917423542876175 0.6368464151672265 0 0 0
511 1 3.243261111257363 7.225263139288592 1.103132672959359 0 0 0
477 1 2.85109795046568 6.253617727595846 1.353310546767411 0 0 0
141 1 5.680164945150779 5.843969434079384 1.3044838762864925 0 0 0
3218 1 4.976291335615712 6.25858029381533 0.49757414697962515 0 0 0
188 1 7.489598474144084 5.944453756175276 0.27752688264292374 0 0 0
145 1 6.73784182221299 5.818578357608596 1.133768664142774 0 0 0
3219 1 6.576383281225248 6.497849098529264 14.874456967357895 0 0 0
3228 1 7.609178544133671 6.5788182160979165 1.4350576836060434 0 0 1
80 1 8.112231087299596 5.9844425764496085 2.059875223782447 0 0 0
491 1 8.234721010247917 6.729924611586732 0.5495407960608983 0 0 0
860 1 8.773491646861585 6.9253997815305555 1.388940258603031 0 0 0
191 1 8.704984691867567 5.952184114943282 0.9942722730102277 0 0 0
514 1 7.203938653911267 6.961096763360022 0.5176611811293789 0 0 0
2874 1 10.092445559161387 6.532911019742312 1.815868060917748 0 0 1
518 1 9.608610608466485 6.517823125156299 0.8336346670004136 0 0 0
3136 1 11.548252122469432 4.756471752140283 0.6198209991599472 0 0 0
453 1 10.750946735585655 6.339082786789571 0.7279234997926444 0 0 0
825 1 11.877939530252164 7.106850132426634 0.9112405788743987 0 0 0
196 1 12.740884223815632 6.442978620505797 0.4640162689499403 0 0 1
3234 1 13.615520982944938 6.9059449513373865 1.0887825704134262 0 0 0
436 1 14.668096975225048 6.416551540257828 1.4260848610936332 -1 0 0
171 1 13.9329521808862 7.412772105289278 0.19858171288303872 -1 0 0
433 1 14.96012552407593 7.197586906566429 0.5980386874902041 0 0 0
529 1 14.318778309401349 6.360297284307701 0.5354899239801073 0 0 0
137 1 1.0636589225724218 7.324078478922961 0.28957952583141533 0 0 0
3242 1 0.21319142813045908 7.950501548651671 1.4696301792628894 0 0 0
2937 1 0.7371469218033895 8.3622942612944 0.3033248834899259 0 0 0
161 1 1.4906172613512025 8.239793104790058 1.001467440516928 1 0 0
503 1 2.8473876023802793 8.399734947978331 14.312503454068507 0 0 -1
210 1 2.3185939728823968 8.741554990910188 0.4284499396440052 0 0 0
872 1 2.560538154501771 7.891494221851677 0.7133943481015094 1 0 0
144 1 4.212139192148673 7.011940518398869 0.632515123560564 0 0 0
950 1 3.348467561826679 8.530541022443723 1.3170662212908109 0 0 0
3250 1 3.522507433370921 7.799530433526295 0.2604892414325314 0 0 1
112 1 5.173280610726549 7.064653519491211 0.9373647141081218 0 0 0
504 1 4.797646744917731 7.675367526979485 0.1595362990695005 0 0 0
889 1 5.047998947106135 8.09571664848783 1.1896126865014838 0 0 0
3249 1 5.887249850974417 7.904762286714468 0.5772624300740617 0 0 0
550 1 6.851188867257287 7.817466941327278 0.88279443208596 0 0 0
181 1 7.703479659218794 7.837020663054976 0.23617428653085779 0 0 0
3290 1 6.687878794363591 8.581910809512534 0.0617005373954388 0 0 0
483 1 6.1828868612713785 6.705301708040339 0.7189362944704912 0 0 0
2516 1 9.066941483850503 7.268770597971454 0.221290562498262 0 0 1
218 1 9.114332967600584 8.03838963208868 1.0243086637571466 0 0 0
259 1 8.160030458921305 7.8214716397636 1.2423285692277348 0 0 0
1199 1 9.309068776711143 8.364643293878375 14.892675606172247 0 0 -1
893 1 10.185113303855934 7.35335081312902 0.5596310684096756 0 0 0
865 1 10.37937649437021 8.136761503270876 1.4231820899953735 0 0 0
1464 1 9.772500609826702 7.347049878198359 1.4442038146472291 0 0 0
492 1 11.235689820478676 7.977111049206994 0.7554089606422527 0 0 0
153 1 10.250209234847738 8.31396241243092 0.39717629680970074 0 0 0
193 1 12.18382561698194 7.95162466228683 0.47340623980701796 0 0 0
2880 1 13.672713380951203 8.000164304944583 1.1191279656250748 0 0 1
3267 1 12.709830083672223 8.412216844389947 1.253779069953237 0 0 1
908 1 13.044924740766097 8.252358788761333 0.019316441390081707 -1 0 0
152 1 12.812099746151763 7.396266224800587 1.034918289365359 0 0 0
131 1 14.525556366135229 8.296960526066464 0.6086563846769302 -1 0 0
206 1 14.006743788199946 8.470743551621851 14.736113820179574 -1 0 -1
164 1 14.412538212947048 8.610150560643081 1.6372343792829838 0 0 0
230 1 14.369879642665378 7.574990462846858 1.6867292360973616 0 0 0
809 1 0.2252412289076259 9.154356430630326 2.143225786644437 0 0 0
135 1 1.8593375262690104 9.263123685868093 1.5463918220200326 0 0 0
475 1 0.6970015221879622 9.87723028626411 1.1280762673244378 0 0 0
2954 1 0.004838317949426547 9.195077334837896 0.18444271525187345 1 0 1
3307 1 1.3835235356252076 10.477142749868447 0.4854614841537421 0 0 0
848 1 2.9037514495696803 9.447087755066185 1.3043287676174764 0 0 0
3317 1 2.2263055238842986 9.801742614161071 0.5789761059348146 0 0 0
544 1 4.13165740108617 8.51427139557471 0.7553732668189638 0 0 0
3256 1 3.8562958831417977 9.894312501497712 1.0244404725437795 0 0 1
2940 1 4.733304227593762 8.823187925707865 14.987579925724708 0 0 0
3220 1 4.373751017140385 8.920967911933865 1.5599973491353858 0 0 1
209 1 5.896360695286012 8.867914926464298 1.1071861844238378 0 0 0
558 1 4.641641015867806 9.402370677561558 0.6948221704941153 0 0 0
176 1 5.6793364364351095 9.172168893641798 0.04847541788896555 0 0 0
512 1 7.478334113429226 8.562511888774448 1.0647752862095659 0 0 0
3291 1 6.74201990950267 9.308996260292995 0.8132446459319305 0 0 1
3258 1 7.235099036076623 10.249943801921086 0.5515331300114409 0 0 1
215 1 7.6409886172585315 9.078833519634465 0.1216609944759738 0 0 0
3289 1 8.080404800460512 9.663486852963855 0.934404799329384 0 0 1
2587 1 8.482631172622792 8.48886249642117 0.37333677697257706 0 0 1
217 1 8.929506635151654 9.544507460915558 0.3817578389047137 0 0 0
898 1 9.546631596847014 8.964969932235089 1.1093006583399234 0 0 0
157 1 11.07105704076649 8.932691451331015 0.9855669786507524 0 0 0
866 1 10.412665951449242 9.40609476973059 0.48778618411526176 0 0 0
516 1 10.814057439648368 10.381032110878985 0.45587642629542446 0 0 0
602 1 13.67118268953206 9.078362140491654 0.7420394176635472 0 0 0
521 1 11.93397592178648 9.0135722980706 0.34674575105493205 0 0 0
293 1 13.712112877331704 10.102051471261984 0.7267098836751191 0 0 0
603 1 14.9499153965625 10.130038491838594 1.9045584146370849 -1 0 0
264 1 14.544950172536716 9.487888500282624 1.0837332424494959 0 0 0
272 1 0.9569981127807126 11.700500097676299 1.1218322962110476 0 0 0
201 1 1.044770095715243 10.68237329885675 1.9271655683516804 1 0 0
607 1 14.759904475599134 10.3500609143056 0.6507933226337095 -1 0 0
3309 1 0.3950873069059357 12.145632342381944 0.4021351775308133 0 0 1
270 1 1.9265805933934412 11.770732206279362 0.8713635471156949 0 0 0
2859 1 2.738019868408999 11.980234291673092 0.33004471816258985 0 0 1
540 1 2.3947032995698883 10.909836745140733 0.7046885387630267 0 0 0
3283 1 3.0421027086885153 12.084926840663066 1.288041244641395 0 0 0
234 1 2.0679623855477556 12.450764702612235 1.6591439174264306 0 0 0
169 1 2.916191898077645 10.438747590568603 1.5947179491244274 0 0 0
212 1 4.380354093202202 11.101376737285609 1.3029365227111271 0 0 0
3325 1 4.177281152345566 11.776954528916102 0.3011361876962284 0 0 0
2630 1 3.3808353188311004 11.122830916445732 0.8940637846162707 0 0 1
287 1 5.197148804753079 10.725765225624357 0.6673315482903664 0 0 0
610 1 5.115579482973762 11.94786038234002 1.3067264500543843 0 0 0
578 1 6.12917084831879 11.590360355945402 1.1116334236021512 0 0 0
559 1 6.303690392783485 10.85871335919964 0.4726838702559208 0 0 0
2975 1 7.17409506674007 11.318609835181103 0.8607316881696867 0 0 1
589 1 8.834970801570037 10.823574157986146 14.973293704152512 0 0 -1
3329 1 8.284466032041378 11.504243341594075 1.5429971587909457 0 0 0
590 1 8.129692577653023 10.794544787735418 0.821950611969984 0 0 0
897 1 10.051397417681978 10.923742023547334 0.7584784934368783 0 0 0
928 1 9.047200328949843 11.369622837919245 0.9630266553467306 0 0 0
225 1 9.797824696970974 10.175830757823825 0.160819685421593 0 0 0
263 1 11.028605038485773 11.293198347696244 0.29699524770183244 0 0 0
560 1 11.956078704378346 11.154096736813486 0.755387364430914 0 0 0
224 1 9.822770268068323 11.035991130069815 1.8283051160015122 0 0 0
902 1 11.091607023302746 10.925308349010317 1.1864955576158296 0 0 0
595 1 13.095601249833342 10.541777688879176 1.9588674274106472 0 0 0
3331 1 11.714024013082605 10.100343504622593 0.7750977182397557 0 0 1
631 1 12.876981750980006 10.702622483526815 0.9457101843796303 0 0 0
3297 1 13.497506929533905 11.47716921940641 1.0460911922258254 0 0 0
1311 1 0.25100572295044593 10.875175715847268 1.2952428744322586 1 0 0
670 1 14.596054502397209 11.598891321162066 0.8908825043044333 0 0 0
3370 1 14.205295476320824 10.840598493228475 1.5663606032468156 0 0 0
3065 1 1.3412564270316114 12.616348220109028 0.8275295239779078 1 -1 1
3344 1 0.07646730758035927 12.78695666940053 1.2657359760303484 0 -1 1
3316 1 2.5108459383879533 12.931127560835725 0.8154158748342092 0 0 1
1313 1 3.4502156631088714 13.164717499902512 1.3779343173578917 0 -1 0
536 1 4.147692067676635 12.169949718264917 1.3616815506670847 0 0 0
2930 1 3.57980238867529 12.599142470391946 0.5804617506399592 0 0 1
276 1 3.756206586318121 14.155927056539928 0.9005183201770328 0 0 0
2968 1 4.449360764411568 13.469467708517577 1.096212798129251 0 0 1
311 1 5.9226368611505835 12.62369119813716 0.7004293166207326 0 0 0
3352 1 4.748008896167284 12.584527608426434 0.5332151914391794 0 0 0
275 1 5.987963217249987 12.744226676485683 14.634585966881534 0 0 -1
251 1 6.796336702906114 12.67357149140271 1.140090409952265 0 0 0
3009 1 6.85106532686444 13.236084821259217 0.28184087816867526 0 0 1
315 1 6.705858681314386 12.047146235874031 0.19115534982459736 0 0 0
553 1 8.114313886767246 12.990389714589666 0.5224962063598781 0 0 0
552 1 8.473755623621217 11.826182209286985 0.01673891196748891 0 0 0
254 1 8.940667825420897 12.417362268332656 0.8705306251872448 0 0 0
1229 1 7.702890142167246 12.170940931494322 1.04037812826318 0 0 0
222 1 9.523829046739307 11.576451915312445 0.16597545830542318 0 0 0
3060 1 9.113498503128216 12.647253388777257 14.87441253884908 0 -1 0
3295 1 10.224223088426632 12.844830314306526 1.5826479217242195 0 0 1
2992 1 11.58887102401024 12.132704163059097 0.5100632817014422 0 0 1
294 1 10.558469703191921 11.94862347760556 1.0451187563562312 0 -1 0
260 1 9.905077629341914 12.563044777324706 0.47923685645071923 0 0 0
3341 1 10.922653644704102 13.007008404785806 0.7759778329227506 0 0 1
334 1 12.196579048010127 12.87404161119291 0.6636547684698333 0 0 1
592 1 11.32302057819876 12.38894485891005 1.4928477198410173 0 0 0
265 1 13.95134509037462 10.939586680631786 0.280658621379067 0 0 0
3374 1 13.080668847255726 12.360995914523519 0.7186333187451034 0 -1 1
2957 1 13.973192609838067 11.962430075433769 0.12028588784629941 0 0 1
3305 1 13.690448299507041 12.953507066138734 1.4075218542253043 0 0 1
3109 1 1.2732944858773132 14.376685064452914 1.2280408375081107 0 -1 1
2264 1 0.8610025623833987 13.385585973126796 0.7923339748568987 0 0 1
337 1 0.5038924338011602 0.0003029109197530489 1.433914088544579 0 0 0
3066 1 0.4721532415869719 13.762465519385174 1.6607588161733198 0 -1 1
3276 1 2.630466063397335 13.969590020689958 1.2067766930962711 0 0 0
709 1 3.157756697748767 14.83008888932208 1.565510510308206 0 -1 0
645 1 1.7705192298667942 13.441990379890957 1.3570258595206348 0 0 0
282 1 3.7845943178268366 0.17488405559300366 0.46158409589414134 0 1 0
3312 1 2.910243842539109 14.623633539353817 0.3609729554378674 0 0 0
2677 1 5.767843577858536 14.612386236510176 0.2721719071417514 0 0 1
3010 1 6.268854214227679 13.740818751742186 0.8805580763627818 0 0 1
284 1 5.309366026612931 13.48652080175038 0.5049604297124706 0 0 0
346 1 4.685396127447817 14.29870271827672 0.4838490059625031 0 -1 0
1332 1 5.353820395004027 13.941849636759324 1.392135792290038 0 -1 0
16 1 6.128997454311729 14.50257136274215 1.7854931828653084 0 -1 0
659 1 6.827713696185845 14.537456967103646 0.15201283399707646 0 0 0
322 1 7.512010674278304 13.728324828558 0.7877269029038262 0 0 0
960 1 8.421973148089924 13.785534986945247 1.2411068928917928 0 0 0
283 1 8.707015225471826 13.607136428817498 0.013870677667567 0 0 0
695 1 8.05673129962681 14.562789810949925 0.5512102794532237 0 -1 0
18 1 7.216399327568562 14.84978980187369 1.1565695602698074 0 -1 0
82 1 9.067096632535495 14.348353993008764 0.5709454085811616 0 -1 0
2710 1 9.909109672173772 14.881614118072157 14.933240396823363 0 -1 0
295 1 9.3539371805303 13.304140651636597 1.0185881040462772 0 0 1
658 1 9.776004733233128 13.638007265077057 0.0003262650281938744 0 -1 0
23 1 10.338206696396474 13.957381384884938 0.7775801096050888 0 -1 0
3130 1 11.02352708677206 14.660761777795475 1.2410232818732976 0 -1 0
2990 1 11.891125887206751 14.297865363097916 1.6389624237641425 0 0 1
62 1 10.792196401461046 13.608938570361309 1.6321116321714622 0 -1 0
3302 1 11.381646253344886 13.904115428448478 0.6942429823767331 0 0 0
360 1 11.864252896637552 14.789307085985412 0.4122988243061728 0 -1 0
3334 1 12.206728608797977 13.7760889446965 0.0449846352850494 0 0 0
304 1 12.905587896266672 13.51410818635588 0.8417279716491256 -1 -1 0
30 1 13.552845939704156 14.14252900888821 1.3372664952486608 0 0 0
3022 1 13.4657889129754 14.907563689355424 0.604101366687384 0 -1 0
335 1 14.661298069089352 13.85911589229727 1.0598899789221936 -1 -1 0
2693 1 13.745360508490231 13.969965000580247 0.34883276836526583 -1 -1 1
1088 1 0.4082243657002982 0.47420713528550357 2.2612985369341727 0 0 0
644 1 2.333466263227976 0.44852702190118376 1.7039540834082278 0 0 0
43 1 3.5027261699782786 0.5843685956108898 2.1884829254616966 0 0 0
336 1 2.1166164869120956 1.2751951384659466 1.1427576314022383 1 0 0
1052 1 1.8229301148254096 0.3503112796269315 2.9001998903275163 0 0 0
741 1 2.4149608163371434 1.3028729137292951 2.3879096689532058 0 0 0
312 1 4.1529001268391506 1.8103985767656103 2.0080675778176107 0 0 0
619 1 4.530842349061508 0.8722468934699844 2.331615499036557 0 1 0
39 1 3.125164389669913 1.2707294222420746 1.6219132379155528 0 0 0
48 1 4.991988993302643 1.2236487308208737 1.4378240774188598 0 0 0
952 1 5.833852425457829 0.9702160179037294 0.7868178175825424 0 1 0
1029 1 5.506011358146139 1.2990523637258156 2.403061743610654 0 0 0
3045 1 5.085271898005056 2.3334426703751414 2.175417889626824 0 0 1
313 1 6.480446038400574 1.4820227117118825 2.5373435880362045 0 1 0
28 1 7.633170332372743 1.2309057172986866 1.5699632188363033 0 0 0
656 1 5.899647651387805 0.32184630698523464 2.641505807382318 0 1 0
1400 1 6.728378343585871 0.5774449864259157 1.9019935089463085 0 0 0
14 1 7.847247135441619 0.392306775737374 2.144134963575507 0 0 0
663 1 8.892270535493244 0.7134070612740147 2.01525345446186 0 1 0
327 1 8.316483747224172 1.845335065075556 2.1865822358954587 0 0 1
699 1 7.754245848841569 1.2133669860034448 2.7993960076866 0 0 0
396 1 9.229054409540305 1.6215158642577572 1.8154748285224485 0 0 0
60 1 9.907230395021193 0.16490179006083558 1.9484594997310982 0 0 0
125 1 9.117047422158825 1.4374037808208682 2.8044124144337346 0 0 0
63 1 10.838167768623169 0.714141515864548 1.8168516847551175 -1 0 0
35 1 11.862275492470916 1.069924705677146 2.070611895562358 0 0 0
3132 1 10.545054136569233 0.32768331824659747 2.7291051555275314 0 0 1
3343 1 11.604393030928392 0.11960253695065094 2.5803146693453676 -1 0 1
3141 1 12.554700066607419 0.07897048559421543 2.1719239907689833 0 0 0
369 1 14.564546665247782 0.9356071903234205 1.59083095044062 -1 0 0
3143 1 14.38300355027928 0.2382894988097697 2.280548744920747 -1 0 1
40 1 14.80710647790574 0.7846618383356451 3.1054867370892096 -1 0 0
707 1 0.3382624315520488 1.4620984207090537 2.629596778237006 0 0 0
1453 1 1.323892052002211 1.8447622273234914 1.5964559889772494 0 0 0
774 1 1.5105463254354647 1.7386398463180988 2.8190514308977597 1 0 0
402 1 0.8060143476068548 1.7938369027022514 3.686242466287554 1 0 0
1081 1 1.4073624035698766 0.9760095222912993 2.1487205949484163 1 0 0
813 1 1.2035498220044156 3.015075506899953 3.174834073728513 0 0 0
1079 1 0.2702606633639282 2.5318487951259985 2.8449180597434145 1 0 0
647 1 1.5809698831477588 2.725373258726924 1.1972150560259085 0 0 0
1077 1 2.377108412527974 2.1803924172407703 1.6399962907227439 1 0 0
1421 1 3.3846649928768353 2.396027545698152 1.5120246156327473 0 0 0
989 1 4.202633585631237 2.5912825676858313 2.7343862131728374 0 0 0
345 1 3.1689249819140763 2.000170426776783 2.4190310820722085 0 0 0
649 1 5.207422739797766 3.488569458686467 2.1572147530252694 0 1 0
650 1 6.227206249593679 2.4850495288448657 2.173010403309986 0 1 0
794 1 7.148184864120812 1.972315619153414 1.04018323258715 0 0 0
22 1 7.332632834135247 2.1458789248592676 3.1801328096064867 0 0 1
382 1 7.24497859031015 2.0160079362077346 2.0965855303226713 0 0 0
460 1 6.975946328745839 2.9765732881425975 2.4622778648908543 0 0 0
1142 1 7.883112593261675 2.5507585231044563 1.5403667275426438 0 0 0
3093 1 8.700992529883425 2.354311924536933 3.1366704841870496 0 0 1
3101 1 10.217553577430934 1.9700415575635486 1.6852223484491864 0 0 1
2720 1 10.75092202865403 2.7275021425902097 1.3979289417507388 0 0 1
425 1 9.344642317357327 2.404411647231067 2.3029819343968194 0 0 0
398 1 10.00663619696184 2.062725094495964 3.13755728953128 0 0 0
2747 1 10.961609474450901 1.68039480510052 2.2560949406299446 0 0 1
735 1 10.090907560792086 1.1885721012668138 2.414653112010183 0 0 0
736 1 11.303961973575207 2.1203280834497287 3.0854572992490157 0 0 0
3138 1 10.600336906894375 2.7520403280833188 2.6360419138194358 0 0 1
434 1 11.404443758654319 3.018660303261243 2.1217733643156738 0 0 0
442 1 12.899419648362679 1.0152813805460115 2.4234283930822715 -1 0 0
435 1 13.118584298199849 2.117275978543946 1.8922686420789903 0 0 0
372 1 14.286457404191168 1.5005522595271918 2.47598880661863 -1 0 0
3071 1 0.22631562028860178 2.1032642944836843 1.830135293293265 0 0 1
472 1 14.231999239697153 2.1167303230687797 1.7059956277338904 -1 0 0
67 1 14.915980988788874 3.7807684568671616 1.0282962377348979 -1 0 0
403 1 0.40574726180896625 3.202251618334126 1.833881343062277 0 0 0
502 1 0.759662732543783 4.427266418550142 1.1509666074114226 1 0 0
743 1 1.201589661992702 2.6127329210233725 2.137028538639541 0 0 0
101 1 2.7789824331675725 3.0787122680891468 2.0590764324768127 0 0 0
1159 1 1.9358810871878098 4.054434913041397 2.419457573105655 0 0 0
3111 1 3.646106751988199 4.381916283078831 1.9823589743095784 0 0 1
3108 1 3.798971988697822 3.241576808720003 2.109318122590792 0 0 0
44 1 2.984694798523203 3.97385052446543 2.66550869949249 0 0 0
133 1 4.505497656999406 4.211109063970969 2.5726441700161184 0 0 0
3081 1 5.668117820190279 3.1328327436922274 1.2950671342065752 0 0 1
716 1 5.895530510619652 4.462193029200617 2.3457329414272694 0 0 0
378 1 6.3862490922052455 3.719599126687898 1.805604892765415 0 0 0
3164 1 6.640993698498051 3.9457870277791245 0.860480202356346 0 0 1
418 1 6.834582064725636 2.9890008008422044 1.3113622879612445 0 0 0
389 1 6.865990724698463 4.205951249073292 2.8534229589320197 0 0 0
318 1 7.526435547830082 3.7171221894481223 2.0067711350736754 0 1 0
3091 1 8.37986059428688 4.274755364041213 0.5766844898959278 0 0 0
25 1 7.951793903226401 3.3136787504389043 0.8643857134896137 0 0 0
3135 1 8.719709560356174 3.2193308950136523 2.094415172950789 0 0 0
693 1 8.67035880896579 3.434743337658399 3.1723647772929016 0 0 0
2811 1 9.752569895212606 2.9445566843052005 1.6348186941633494 0 0 1
53 1 8.481389020495094 4.183117078021836 1.735991410356983 0 0 0
3131 1 9.609865883080422 3.112471515164903 2.9998869352282993 0 0 0
151 1 10.477903005227988 3.6348075714009074 3.232270635125269 0 0 0
399 1 10.57268860440993 3.6268522873666402 2.1399516868564143 0 0 0
1078 1 13.45340262281714 3.0803042054243477 2.144789168722994 0 0 0
804 1 12.548334381198424 3.1496407747224238 1.6436521106012116 0 0 0
801 1 12.037027017230297 3.918421110864421 2.213035862671876 0 0 0
124 1 12.996486365726913 3.9895100450891543 2.3910441673114273 0 0 0
98 1 13.51472425438212 2.9470115595562802 1.1613542193850046 -1 0 0
1015 1 14.066135544191933 4.260549731568749 2.3609531403993533 -1 0 0
432 1 14.76480747307253 2.653349241259373 1.0220003434939613 0 0 0