LAMMPS data file via write_data, version 7 Feb 2024, timestep = 25000, units = lj

1330 atoms
1 atom types

0 11 xlo xhi
0 11 ylo yhi
0 11 zlo zhi

Masses

1 1

Pair Coeffs # lj/cut

1 1 1

Atoms # atomic

87 1 0.6787196222650569 1.1232862809600603 0.40511189961881805 1 0 1
195 1 1.18125102574601 0.20150390790962433 0.4433243897505954 0 0 0
242 1 10.573002916607242 0.7602263287691223 0.3083441069022738 -1 0 0
51 1 10.997375031162642 0.41612816138553643 1.0721103535531236 0 0 1
766 1 0.9313361931490305 0.8861542513913793 1.4449184159104098 0 0 0
31 1 1.6577216366396654 1.3615124132853387 0.5768196147006815 0 0 0
194 1 2.055638117036827 0.5089889442640053 1.0409582457318385 0 0 0
498 1 1.5770827263833704 10.868463542305411 1.7051129695621359 0 0 0
524 1 2.684544352126608 0.8502214338451205 0.4195424633298984 0 1 0
11 1 3.630130452947137 1.3743801184565059 10.935431015247701 0 0 -1
1294 1 3.808599454595794 0.7235535075411883 0.7236562245651627 0 1 0
1166 1 4.807883046043059 0.7714524500598964 0.5281723164784133 0 0 0
365 1 4.016635792275053 0.2996054085002735 10.679384104065138 0 1 -1
996 1 5.538565429014419 0.07507922850459903 0.8681825643693256 0 0 1
564 1 5.741467586519766 0.9704029893076597 1.1855847107247977 0 0 0
410 1 6.724577064465988 0.8361532273642666 0.7036089386402818 0 0 0
1195 1 7.156012954676349 0.49805946078255364 1.7532122462793578 0 0 1
786 1 6.500174136606637 1.1753313900477347 10.720023395740828 0 0 0
52 1 7.733049825776514 0.8488297673773652 0.39550465983679334 0 0 0
1003 1 6.6689401574831635 0.16931588394903915 10.961730706554174 0 0 0
226 1 8.409378242726838 0.4376002666271554 1.151781959231945 0 0 0
1193 1 8.888318301488184 1.3250702800973517 0.6815045207200738 -1 0 1
78 1 9.881400741034806 1.5300875592278271 0.234838644008816 0 0 0
74 1 9.280367646077947 1.968347764857379 1.173529650243509 0 0 1
85 1 9.956214965619747 1.049083262837682 1.156337434440864 0 0 0
29 1 9.959804723870613 10.8408730240905 0.5557826609041304 -1 -1 0
295 1 10.938905834217648 1.539914247042039 1.201118127855787 0 0 0
322 1 10.38671946590948 1.1297498782936517 10.33990243131201 0 0 -1
1224 1 0.9870553744766445 1.8937767581924978 1.12893564363446 1 0 1
1253 1 10.976577420512843 1.7778153452512737 0.12385583026686509 0 0 1
93 1 0.9663375058059994 3.250182934905184 1.4787274998197462 0 0 0
990 1 1.0939344213915339 1.9554881299839448 10.819379680619216 0 0 0
1177 1 0.9497582591654259 2.8058896765727694 0.512344947723443 0 0 0
550 1 2.8702861347946107 1.6939536869862168 1.0602173536016826 0 1 0
143 1 1.919464441915762 2.3956578028079956 0.7198160319577214 0 1 0
249 1 2.791130564655284 2.915289894315809 0.9603590978229444 0 0 0
89 1 1.7670330193604018 2.8454411135666775 10.748819774332786 1 0 -1
212 1 1.8188248511859788 1.3804128799004418 1.7215166259303367 1 0 0
359 1 4.052019856732486 1.7184819331111219 1.069738976976975 0 0 0
4 1 3.308741362528421 2.1799788751957627 0.3752655419848534 0 0 0
1198 1 4.467252572879922 2.673443282853236 0.26869702986845284 1 0 1
1264 1 4.854158246541259 1.3746910186819128 1.6509019190737086 0 1 1
202 1 5.06294078451226 1.6677253050353813 0.7053837219109359 0 0 0
60 1 5.697479807129457 1.9611853984699152 1.5039157570351687 0 0 0
973 1 6.077757660984477 1.6693580535028658 0.5882410379907517 0 0 1
1157 1 7.064336693876134 1.7481789865009099 0.516384096284844 0 0 0
46 1 7.3962863823715566 2.5978803863343956 10.943488081179215 0 0 -1
81 1 8.088053070446895 1.813985832208178 0.27865790574047616 0 0 1
374 1 7.1025280205513495 2.3447627194866327 1.5440242417026855 0 1 0
1184 1 7.67050992487433 1.3432789433083305 1.3067299156310404 0 0 0
1165 1 9.121994381833382 2.846052023884816 0.4896450697662521 0 0 1
1201 1 8.044984973032884 2.3424405248097546 1.0232293810599922 -1 0 1
1005 1 9.138697972053349 1.9500172626013113 10.810403684154704 -1 0 0
105 1 10.270339469953257 2.3076943201894897 0.6900289446929944 0 0 0
68 1 0.08337152441495792 2.704477718256906 1.1055872404107638 0 0 0
1220 1 9.817996834418238 3.2360946399907524 1.2473446734956801 0 0 1
1223 1 0.03681347540305593 2.9011060869527805 0.0630465359160092 1 0 1
281 1 0.12446808593196221 4.540650342694628 0.4467054263740413 0 0 0
1248 1 0.40677281601018755 4.216228640233208 1.7119871713660346 1 0 1
59 1 0.8306143725597074 3.7725441058787728 0.5132460552522599 0 0 0
69 1 1.9130191752710641 3.5195360366100887 0.672855791799968 0 0 1
90 1 3.0409420748358693 3.9644105183130534 0.8319415413296377 0 0 0
280 1 2.9897575556881675 5.14238873289011 0.5049906679843065 0 0 0
64 1 2.2339568667031564 4.567225891581358 0.7520872766529586 0 0 0
38 1 3.6720885212143535 3.2705164388584627 0.5241676197771488 0 0 0
1174 1 4.683192155618547 3.3950292788021676 0.9605152077142155 0 0 0
62 1 3.931687623808933 3.5116564452335135 1.480757696734301 0 0 0
94 1 5.264676236289338 3.079522026617544 1.804840872395282 0 0 0
255 1 6.353034497559122 3.064014090298052 1.506629579046118 0 0 0
994 1 5.862606114839029 4.507864311944401 1.2517565730444287 0 0 1
1182 1 5.503292620359392 2.807197006952506 0.7170937073661107 0 0 1
14 1 6.615186611484375 2.7837010761148946 0.5342879558399892 0 0 0
43 1 6.508346730859489 3.824755041209451 0.9261651404252741 0 0 0
1156 1 7.338481904447824 3.28503071466616 1.043980405011614 0 0 1
1243 1 7.504283152640405 4.378381226187398 0.6367705322599275 0 0 1
84 1 6.956290392968483 4.008846648642165 1.8054306723893212 0 0 0
1189 1 7.947321873501667 3.9434085171301954 1.5313739204606074 0 0 1
1033 1 8.34908310890704 3.3926581837676175 0.5873528579929517 0 0 1
104 1 8.490321186234882 4.29502374425815 10.894064774488985 0 0 -1
1231 1 10.065159836852429 3.2302888258815776 0.09756913379089302 -1 0 1
657 1 8.802198667548769 2.8753066904938573 1.5257613609931595 -1 0 0
243 1 9.292446005294838 3.8717136262878866 0.643386681973678 -1 0 0
294 1 10.627093260420759 3.7164154256831394 0.7538122195437577 -1 0 0
1116 1 10.12478213713327 4.469647635201747 0.2656937714789743 0 0 1
102 1 10.38549693719454 5.252629765654461 1.3359903689513546 0 0 0
518 1 1.328995591016251 4.262357369293124 1.318187583496715 1 0 0
451 1 0.952156478248359 5.951032515496267 2.238105626455677 0 0 0
304 1 0.6629979470520041 5.231705077724501 1.372676335378981 0 0 0
57 1 0.9407427406916651 5.959933537835017 0.42324184620712857 0 0 0
272 1 1.1907109590385865 4.801667099239219 0.45634301208262384 0 0 0
1234 1 1.7612493770943662 5.137287778603957 1.616893670886568 0 0 0
1230 1 2.449576006603964 5.880666560396839 1.6620251457258723 0 0 1
71 1 3.956415090560375 4.5522929897635125 0.9996223248401933 0 0 0
1236 1 4.249516993658128 5.265918096969755 0.3455094286092419 0 0 1
80 1 3.6537778707990047 5.507640384177124 1.2129900209125295 0 0 0
97 1 2.6430326624148224 5.906871163285351 10.589034989258593 0 0 0
987 1 4.768648837429216 4.059901454782317 1.7139488922300845 0 0 1
39 1 5.257880515698089 4.877591769533041 2.115113126294094 0 0 0
258 1 4.902866050306638 4.402238409735065 0.6038044792669707 0 0 0
98 1 4.666643737276454 5.369337353159971 1.4180459391231335 0 0 0
1254 1 5.506798528732749 5.216912917142826 0.6095088226565618 0 0 1
1239 1 5.588683983691534 5.84497415435362 1.8961196030989975 0 0 1
284 1 6.3910367434429025 4.864840345852655 2.1774872430033 0 0 0
1237 1 6.726809780879432 4.945697017488116 1.0441183957322238 0 0 1
130 1 7.872293587698557 5.124340686987016 0.035794891087540685 0 0 0
1278 1 7.438795696706748 5.673580166070102 0.9334281512660046 -1 0 0
1265 1 9.412731732932253 6.574682529972126 0.5249216220274205 0 0 0
1075 1 7.542906914303849 4.8597709458122145 1.6274069797086441 0 0 1
860 1 8.533375691376818 5.88419549241044 0.631308991164928 0 0 1
270 1 10.989703600394474 5.79523362617348 0.4730386640906326 0 0 0
128 1 0.3087070873517196 6.437983804017055 1.2333779287185782 1 0 0
1247 1 9.266106173260965 4.963459194352769 0.3342892428417552 0 0 1
329 1 10.123249534744357 6.270506717314828 1.5005219334811168 -1 0 0
1281 1 2.1036222857942595 6.387174950711055 0.26161138102888337 0 0 1
110 1 1.2289763839232055 7.080131791041307 0.9348093602147881 0 0 0
721 1 0.8947041635113063 7.866634894030058 1.7388487025615862 0 0 0
301 1 1.963488607648378 5.549774278814256 0.7317949789903075 0 0 0
368 1 2.97244641873665 6.898566591156845 0.12200206381941613 0 0 0
471 1 2.0484986708045474 7.374751600084367 0.3914548456581103 0 0 0
146 1 2.9966562498072773 6.066157987415356 0.6841560761102288 0 0 0
307 1 2.8641542414950765 7.959876105855048 0.7414199969841876 0 0 0
1217 1 3.8289908000915367 6.234163105743295 0.15826171665987707 0 0 1
149 1 3.9515469396769403 7.220079133655922 10.981740001619713 0 0 -1
256 1 5.319924315229383 7.5346011759600735 1.4085928195525015 0 0 0
282 1 4.985909778504763 6.042632691529394 0.4939584164252501 0 0 0
106 1 6.984960373537267 6.70635007235525 0.4921700479813866 0 0 0
1293 1 5.611524915083622 7.06116544877416 0.4273783244929098 0 0 0
108 1 8.632453990763617 6.878058953739571 0.028655221324575646 0 0 0
127 1 9.38977119704324 7.572985250331841 0.4557025210042305 0 0 0
152 1 7.726850420052031 7.306908895190837 0.4072651460302434 0 0 0
319 1 9.491444185682832 7.371313414062937 1.646220887229276 0 0 0
1062 1 10.387846354984516 6.919278901725047 0.6440885856171594 0 0 1
1277 1 10.840394525866932 7.579444683043486 10.877048523867346 0 0 0
351 1 0.3543423934839404 7.573170169270985 0.8725079713314432 1 0 0
163 1 0.37248364357336633 8.448858498517696 0.3111429116121835 1 -1 0
336 1 1.5288625956052537 8.618687595632936 1.05033872435356 0 0 0
765 1 1.0856968016935378 9.293154401900454 0.4999721695538193 1 0 0
499 1 3.8144282033354053 9.552184218021198 0.10285207879680325 0 0 0
70 1 3.0774873367880407 8.78983957543885 10.986050160093333 0 0 0
164 1 3.2834398005964367 8.882758564039005 1.1083534819548402 0 0 0
311 1 2.2386909854417016 8.594961540586272 0.3813012083785031 0 0 0
276 1 2.180374821098663 7.8805078830095 1.4477824323593147 0 0 0
371 1 3.847183318002702 8.161314055196762 0.4373310714396106 0 0 0
341 1 4.798024986763939 8.260880968259956 0.9317379818631851 0 0 0
344 1 4.634145306202627 7.295325660662067 0.7359331881916741 0 0 0
1267 1 5.785524219875978 8.01667136442436 0.5268875533081464 0 0 1
350 1 6.244872656070092 7.7204826145850705 1.7916384430885592 0 0 0
1127 1 6.107117951684941 9.362418746975106 0.0564324549545672 0 -1 1
560 1 5.31673905348578 9.08225121668731 0.5353058187842934 0 0 0
154 1 7.565938920181246 7.925979192170734 1.3534492091166368 0 0 0
1299 1 6.661367849491923 7.536073298066321 0.89759418342615 0 0 1
151 1 7.077826067272878 9.256062910688863 0.19920279429751364 0 0 0
209 1 7.347015233193641 8.879832782587536 1.1352044407137103 0 -1 0
182 1 8.223771858347959 8.477145113677192 0.2727382343748206 0 0 0
1302 1 9.337256221951854 8.338204853365776 1.124142247338797 0 0 1
160 1 9.514826896868646 8.658019790273682 0.12357302848408606 -1 0 0
516 1 8.498394507385317 7.7944433059304385 1.140258916950446 0 0 0
240 1 8.292411774401328 8.84914550861534 1.4278923871830098 0 -1 0
1326 1 10.304173721245261 8.082637712348241 0.6845869578081747 0 -1 1
383 1 0.15441553100462974 9.587242578403133 1.0231980661908948 1 -1 0
1318 1 9.277449719011523 9.207918111402455 1.5615832534288223 0 -1 0
49 1 10.890280200764582 10.507765343913599 0.3787265123037901 0 -1 0
362 1 0.6326186432601395 10.51966101181648 1.131023088604939 0 0 0
496 1 2.042893321569472 9.47100603045321 0.7679440315663781 0 0 0
470 1 1.667635470779236 10.374382091569794 0.8181547454810708 0 0 0
903 1 1.3194329488943293 9.853304160228804 1.6745971320825808 0 0 0
334 1 1.998383347888774 10.116641158781922 10.829679216904703 0 0 -1
333 1 2.881646596864381 10.972028350854421 0.8409661938577553 0 0 0
306 1 2.2276846627940254 8.928726857358699 1.7570827318000581 0 0 0
348 1 3.833821564865891 10.68263018781054 0.4742257438129651 0 0 0
144 1 4.275927460351899 10.336442616883367 10.505496366919523 0 0 -1
15 1 4.581931848649086 10.634710932841204 1.170166302818004 0 -1 0
500 1 2.8753794975469043 9.953388245420733 0.5322821547847955 0 0 0
141 1 4.293343259051504 9.138967221741641 0.9837207212650788 0 0 0
316 1 6.342449082243537 8.882034648853555 0.9192150561763487 0 0 0
34 1 5.804480813284938 10.549326383882287 0.03922314088172876 0 -1 0
370 1 5.883856799054389 10.0412581267844 0.9339418252181045 0 0 0
201 1 6.656549011106817 10.896991025767443 0.896142440128167 0 -1 0
338 1 5.0848037255021135 9.560047147049827 1.393280755277099 0 0 0
22 1 7.722201745856076 10.636379268944777 0.538527067927185 0 -1 0
16 1 6.889994292398505 9.947350767748707 0.9379005197603456 0 -1 0
178 1 7.889321303603538 9.552580620977238 0.7250985592788718 0 -1 0
1170 1 8.849281449996122 10.512038066166395 0.6699861493628485 -1 -1 1
1148 1 8.378869221205187 9.966476001736082 1.5247102662382004 0 0 1
47 1 9.38459900180102 0.567275652763946 0.128972206049741 0 0 0
165 1 9.603168557761514 9.893652956015224 0.805725483081527 -1 -1 0
25 1 9.426676742327688 0.1512572551874554 1.4173707482901072 -1 0 0
976 1 10.526717591911483 10.60584396888367 1.3776586018105086 -1 -1 1
1171 1 9.422633651407816 10.606105988859102 10.619093404266179 -1 -1 -1
271 1 0.16130352132741405 1.105553787911793 2.187629057489476 0 0 0
250 1 1.1062384151216667 1.7224853056065756 2.452121189025149 0 0 0
109 1 0.3509705380369977 2.061762722304531 1.8878849262076791 1 0 1
525 1 1.461406838143192 1.1860786975671043 3.2050552045738803 0 1 0
1150 1 2.340213405928143 0.9033218726727572 2.452796323194762 0 0 1
551 1 2.9128625640684747 0.7423112835799643 1.4628900753019012 0 1 0
217 1 2.767921379732369 0.899325514308793 3.393986819495413 1 0 0
5 1 3.1838300823030363 0.23985740960099314 2.8371351080593845 0 0 0
404 1 3.5534927578711817 10.909324989786075 1.7836300296925547 0 -1 0
30 1 5.171936607585488 0.37199994680092513 1.9285625068024437 0 0 0
395 1 4.295303299997516 0.09886667163617784 2.457370775077898 0 0 0
172 1 6.137411090107714 0.19151630814978202 1.6825189544223507 0 1 0
223 1 5.806243510338088 0.1095163656262726 2.6809591793997556 0 0 0
204 1 6.657973179966829 10.394285434818228 2.1548418400720797 0 -1 0
215 1 5.94963380374903 0.9785107528593237 3.2455373764323068 -1 0 0
173 1 7.531237577335748 10.560225781471752 1.6263745596830226 0 -1 0
76 1 6.704408123980651 0.6857959981633387 2.634375512121691 0 0 0
375 1 6.633569949360158 1.420230085080701 1.6158880315453126 0 0 0
13 1 7.413771730918955 10.042391590595766 3.0547264226812225 0 -1 0
183 1 8.530945039119818 10.833413013375012 2.054816875943601 0 0 0
50 1 8.436942208144755 0.2865004778549864 3.0211727046521855 0 0 0
411 1 8.852108889992541 1.2472945883244404 2.919948242379465 -1 0 0
73 1 8.13126234638574 0.7734026653921697 2.2234264102860655 0 0 0
53 1 10.449357653451246 0.7380875782325652 2.932090578686243 0 0 0
21 1 8.953428272657227 1.0072221810733528 1.8333211946495025 0 0 0
48 1 10.105865136926242 1.3579496186405051 2.140522071661301 0 0 0
268 1 9.4309312303272 0.4766065944395605 2.608147494031039 0 0 0
386 1 10.695472835228008 2.6871460750416034 2.575851771169318 -1 0 0
88 1 1.2097590631350184 3.7709091846321194 2.3856366997283347 0 0 0
737 1 0.8425565373229993 2.732646229738188 2.5707984010741365 0 1 0
1012 1 1.5585778607892116 2.3754524382671436 1.799233093704912 0 0 1
235 1 10.72501021946363 1.6948083072518114 2.8474559359045437 0 0 0
192 1 2.021146516924001 3.2363252970541305 1.6082907489729439 0 0 0
391 1 2.0081831345812042 2.0565814674334235 2.7931724561938385 0 0 0
37 1 2.6118674733505434 2.5140479012726464 1.9626299952536137 0 0 0
116 1 3.6130085666424194 2.5052225077113452 1.539914143926732 0 0 0
41 1 4.015840446743955 0.9289352110081177 1.8084408624465538 0 0 0
373 1 4.693541701788773 2.3817610322270633 1.2786647110078753 0 1 0
67 1 4.007015559064691 2.0047912488287283 2.386291101034479 0 0 0
406 1 3.3351408841287036 2.8739247758965187 2.7682146937135848 0 0 0
33 1 3.1510186449130684 1.5885390860962008 1.96919924369965 0 0 0
207 1 5.0205496560837215 2.0859456354752886 2.5724146791670175 0 0 0
12 1 5.80549914097357 1.1784172691150414 2.2755020153499745 0 0 0
18 1 5.739405481465367 1.9436935705652656 3.2140885046906695 0 0 0
42 1 6.120024875893144 2.3033738432353306 2.3023546043290795 0 0 0
23 1 7.490957942356972 1.536239706258557 2.229319529303111 0 0 0
459 1 7.206847897775035 2.546171830522149 2.5051362177703633 0 0 0
245 1 7.6402209586038365 3.0473145889890785 3.727084818397344 0 0 0
206 1 8.16027855620292 1.9933515805384696 2.778414102960267 0 0 0
77 1 8.420265140535792 1.8957651948700551 1.8475503560075142 0 0 0
1273 1 7.90964183475703 2.968826141767327 1.906307625222189 0 0 0
267 1 8.705058734897907 2.943990907267196 2.79475247922968 0 0 0
277 1 10.18776368336251 2.3259896512716938 1.742361746848804 -1 0 0
468 1 9.560511937051405 3.402152813555852 2.1789649366108534 -1 0 0
653 1 9.41489904735847 1.9908022642948815 2.403467447763704 0 0 0
120 1 1.8135013117910543 3.0555343244371724 2.701568988271441 0 0 0
121 1 2.198624288477583 4.213641794798381 1.9692473936768387 0 0 0
931 1 0.21810683238719694 3.8415511786683445 2.8677716444649333 1 0 0
691 1 1.772201619049659 4.279158960127284 3.047819166633642 0 0 0
448 1 2.756749811190357 3.7329526537051145 2.7560090818942817 0 0 0
231 1 3.7412188250308507 3.727511561234962 2.6118603498068507 0 0 0
252 1 2.5854964162256966 4.444250087736819 3.521650076809013 0 0 0
221 1 2.9617746175829773 3.6492515770181844 1.7056259289489033 0 0 0
369 1 4.359610815023846 2.994080480936241 2.1963528294234616 0 0 0
478 1 2.8611649752390718 4.8107318473192695 2.5909930274451742 0 0 0
246 1 3.589805721451944 4.425898373074847 1.8502385652441167 0 0 0
1185 1 4.845483789787097 4.213812710108832 2.692138315497031 0 0 0
237 1 5.512872694489738 3.156629893225162 2.8326291081534993 0 0 0
1158 1 5.8772982159920995 4.2506093012179305 3.2069491898104556 0 0 1
228 1 5.780135374971975 3.9844873826920284 2.139612924301452 0 0 0
257 1 6.92072985211534 4.35175658227307 2.9924441308232246 0 0 0
457 1 6.471232142457048 3.44930885418393 2.7547400244295024 0 0 0
266 1 7.652103977750166 3.344740834169788 2.7649854138210705 0 0 0
1221 1 8.523041337314282 3.9381671296964917 2.414237241384591 0 0 0
644 1 8.620296585604539 4.808405669394528 3.172176541799247 0 0 0
463 1 8.369230124078442 4.7849789343754345 0.8993653144275889 0 0 0
651 1 10.10868136863779 4.0850484766659045 1.6673800707370237 0 0 0
444 1 10.795671469344038 3.3979392700098088 1.8256332077529172 -1 0 0
493 1 8.936035022386104 3.8900509625875896 1.530500562038353 -1 0 0
449 1 10.254527470640959 3.8495739455079967 2.6816702070457814 -1 0 0
251 1 9.444391724117304 4.87216002859567 1.3852243268745366 -1 0 0
297 1 1.0290391371692922 4.838965108453472 2.2670017077816835 1 0 0
689 1 0.25861152377468527 5.205516749956786 2.8635663441682353 0 0 0
356 1 10.981867494796978 5.752656713401467 2.0213437539943873 0 0 0
1256 1 0.4685808943075762 6.192574048838674 3.07474934538292 0 0 0
278 1 1.839821650076185 6.151140042580779 2.6347222426306343 0 0 0
520 1 0.34568955011891145 6.234308639986774 4.044624838977313 0 0 0
113 1 1.8976392743653525 5.11668809084869 2.5998929041950465 0 0 1
1274 1 2.855625325079494 6.04857434276541 2.6732567918414345 1 0 0
473 1 2.8418129455026864 4.966892862393682 1.4563800791425636 0 0 0
475 1 3.1040848219790385 5.465446024196066 3.4977815718939187 0 0 0
1213 1 4.3226043689912474 6.207070156964302 2.134760244288257 0 0 1
99 1 4.803127908358078 5.160649099236181 3.3520114205831746 0 0 0
612 1 3.733741799559082 4.669176313064438 3.2374360287792765 0 0 0
648 1 3.485232696440211 5.530351906761447 2.145039026178926 0 0 0
72 1 3.9335796608585887 5.922980685420644 3.0520198952333986 0 0 0
309 1 3.350010641906806 6.408721740999224 1.723649474534901 0 0 0
1020 1 4.251417889488277 5.062505357808652 2.391573014063795 0 0 1
1017 1 5.818325638214488 5.257921546677036 2.9205099196949242 0 0 1
298 1 5.242701674659043 6.551443557278662 1.259821274995488 0 0 0
618 1 5.348636172039085 6.86703016384571 2.291097168823287 0 0 0
458 1 6.297596867530626 6.388170476160128 2.527835650696098 0 0 0
430 1 7.076714058336525 5.374145296209424 2.8133550926532696 0 0 0
647 1 6.777624028607681 5.735835677576319 1.7597595922855933 0 0 0
1259 1 6.542886906373756 5.773966976301911 3.4981495159357787 0 0 0
461 1 7.755643397269828 4.5318077427436405 2.5386293573691248 0 0 0
1279 1 9.117971194735071 6.184294123756285 2.3890468356224237 0 0 0
315 1 8.305930840231229 5.576814993612709 2.683049174462 0 0 0
1301 1 8.179194385020658 5.75853255254173 1.5828597538797085 0 0 1
288 1 8.60170914924063 4.866050875956544 1.9735278664687756 0 0 0
233 1 9.174750073217776 5.868617043743235 1.452048134247879 0 0 0
291 1 9.404567731592879 4.5334589908587395 2.4624316169519345 0 0 0
159 1 0.14625117298090498 6.813518665420391 2.2065741127099145 1 0 0
332 1 1.491029469473335 6.191224287586454 1.4621100120167658 0 0 0
716 1 10.916387155925964 7.873971807305 2.482642240489554 -1 0 0
545 1 0.7440541020428575 7.253790405454462 2.868204283961054 1 0 0
118 1 2.278851369827254 6.954367795171344 2.156502435241701 0 0 0
145 1 2.4912063254514103 6.826742943290421 1.1764904439009922 0 0 0
534 1 1.7929895546053614 7.857985380915718 2.3443270992121765 0 0 0
367 1 3.5126898147593555 7.145623968207448 0.9789650340780527 0 0 0
279 1 4.55624523810064 6.868263839875839 3.089408486065808 0 0 0
450 1 3.456197282541346 6.884716774761859 2.6747477541295868 0 0 0
717 1 3.132187271810984 7.3682990160505 1.8647445607199369 0 0 0
1266 1 6.265698274099896 6.790389791552702 1.5834453976498093 0 0 0
1051 1 5.112425206764263 5.975154753646059 2.776344588350272 0 0 1
320 1 4.277863908941449 6.4097804465404336 1.1283795145510602 0 0 0
543 1 5.255269357658531 7.91311449210642 2.455064956372154 -1 0 0
456 1 6.84845045432046 6.785013190788694 3.290642981210869 0 0 0
1242 1 8.299973123590293 6.950831416655668 2.0958213612033822 0 0 1
541 1 7.390097362017218 6.762878611906581 1.4911398041029693 0 0 0
345 1 7.508465884544117 6.324221454202569 2.4403448597998416 0 0 0
562 1 7.154790107222531 7.481078593777353 2.2681812397055485 0 0 0
331 1 8.825943403329573 6.781392215371792 1.27154190408187 -1 0 0
264 1 9.032120456529476 7.300200035967824 2.763260558415272 0 0 0
286 1 9.974920460442425 7.568362805137321 2.66067981516726 0 0 0
177 1 10.145080523893348 6.488621597510016 2.424992587403097 0 0 1
355 1 10.633026293838707 7.373752848811435 1.5532817822433145 0 -1 0
686 1 10.426178189507564 8.418618738716184 3.0958932931021654 -1 0 0
628 1 9.65298704175049 6.635729196147709 3.3353912692732757 -1 0 0
517 1 10.735936028637497 6.9079728507527625 3.1032221613236373 -1 0 0
353 1 0.7646084556040267 9.076067481659273 1.5027849381232143 1 0 0
736 1 1.181793365288023 6.958754083661131 2.0859950569126577 0 0 0
398 1 0.6107956718170259 9.6362642521815 3.046548323736032 0 -1 0
308 1 2.933776310293878 8.340950218652473 2.0778220913402414 0 0 0
901 1 1.4059826323054152 9.024459273794912 2.3689322151788392 0 0 0
690 1 2.868556972629815 9.459940371086118 2.414453187121913 0 0 0
531 1 3.177504371666347 8.461534552370278 3.2061536735511464 0 0 0
199 1 3.784097922895476 8.049387983539189 1.3757032228136252 0 0 0
482 1 3.679820884279035 9.840144682237202 1.3304382174921887 0 0 0
719 1 4.157789850538255 8.03645658437114 2.3982480881440202 0 0 0
287 1 5.669417045668399 8.586110397166982 1.5859139082751021 0 0 0
697 1 4.413045057552546 7.295724049206235 1.7852382910449336 0 0 0
261 1 6.333731766569603 7.642141206016204 2.778686643995441 0 0 0
505 1 4.719188433243329 8.691035521014019 1.7744091684844345 0 0 0
153 1 6.270414713434895 9.264359795644703 3.749636149111946 0 0 0
1276 1 6.682221323405928 8.58905988935412 1.9665240642455106 0 0 0
148 1 6.988412952705103 9.122113365439267 2.857042282343865 0 0 0
352 1 7.236298222766705 8.058994666383164 3.315544451330462 0 0 0
731 1 8.875329548007885 8.10351611361093 2.055036296462417 0 0 0
700 1 8.752087145242577 9.410252587250477 2.4672272421336086 0 0 0
567 1 7.839180385319059 8.362186557292613 2.3255478507887957 0 -1 0
330 1 9.225808585572373 9.658602566422417 3.3598645382224555 -1 0 0
510 1 8.427733282275296 8.144831543641182 3.083909277921739 0 0 0
325 1 10.862055518150607 8.428754956845783 1.492810987755383 0 0 0
185 1 9.93894408946096 8.49465584958183 1.9504259083176976 -1 0 0
327 1 0.11131678160985707 9.019472601966779 2.4483842021122695 0 0 0
570 1 9.744722684809162 9.395080312701273 2.509426565872841 0 0 0
324 1 10.37137236071539 9.502183288629073 1.732641753948861 0 0 0
1300 1 0.29851888431568846 0.08359544321197332 2.0220901626074244 1 1 0
527 1 1.1738126541404823 0.5944443348602361 2.4284421067951865 0 1 0
526 1 0.20273087636444664 10.053456443707011 2.10672994035327 0 0 0
357 1 2.4876293020244593 10.889977498922942 2.1524880500912045 0 0 0
555 1 1.1506198068574325 10.452594558364593 2.6692074026629355 0 0 0
171 1 2.6641414121169076 10.103326351778392 1.5032416584247383 0 0 0
528 1 1.9564229235130342 9.817899632423684 2.781998514477821 0 0 0
196 1 3.5393724385791314 10.27341673135521 2.539679913523611 0 -1 0
521 1 3.9807728781012255 10.72651693303055 3.3874484044918742 0 0 0
205 1 4.366885706599911 9.85330855346443 3.167392621612245 0 -1 0
407 1 4.449234454086189 9.91950438523128 2.111529707724427 0 -1 0
19 1 5.571617000409213 10.172012132631123 2.0246702868782216 0 -1 0
24 1 6.108822932529307 8.72800079826377 2.803648224985517 0 -1 0
179 1 5.095802983377787 10.439883151129852 2.8518329094896915 0 0 0
431 1 5.3155242756789844 9.250538822999081 2.3559046458970725 0 -1 0
1323 1 7.499851512203876 9.569566918539705 2.0695912612979765 0 0 0
313 1 6.35454670598628 9.524255109749753 1.7936586680584796 0 0 0
188 1 7.954490270141047 9.053967656129112 3.10744110655144 0 -1 0
538 1 6.130266589464407 9.727230987285495 2.7792401385858603 0 0 0
186 1 8.455796231220186 10.320955846079915 3.0532646061595394 0 0 0
187 1 9.470435990232334 10.262558047641333 1.8888104278120634 0 -1 0
465 1 10.268587537569239 0.42165117502131094 1.9813789734654765 -1 0 0
55 1 9.511687805436619 10.547008242530838 3.098333729041995 0 -1 0
574 1 10.334422760779152 10.443180961771198 2.479350009836071 -1 -1 0
107 1 0.4437102067932728 0.85574054107363 3.1229950750725757 1 0 0
571 1 0.9115127953175689 1.059924622607283 4.0074645813356415 1 1 0
763 1 0.2357418521552351 0.3304382425136405 3.9441278653479652 1 1 0
360 1 2.321015992148399 1.6857024334752821 3.831878327859999 0 0 0
389 1 1.851078160315392 0.6865003686362244 4.028485044373019 0 0 0
229 1 3.480751662018365 1.4777925928683207 3.8660923823768703 0 0 0
422 1 3.7934025424864455 1.0485997962136862 2.7369422294482906 0 0 0
380 1 3.0801564001773785 0.06698273277991255 3.8862832042253816 0 0 0
566 1 4.044149275767901 0.6673761960252869 3.862059825780995 0 0 0
225 1 4.412678467231629 1.3917292820763945 4.546255533372203 0 0 0
583 1 3.978193667783258 10.72599057869181 4.416124467494183 0 0 0
208 1 6.346757257705862 1.3526544538593472 4.064482491056946 0 0 0
28 1 4.945960937480674 0.21526587394428343 3.465435723791875 -1 1 0
61 1 4.82838162961752 0.9775074580385127 2.724522353631883 0 0 0
569 1 4.848210613584829 0.3452727336301819 4.572511011450496 0 1 0
776 1 5.1969211656821015 1.163554325704134 3.838265601004726 0 0 0
408 1 7.553937901914817 0.017694398813395743 2.5643948091592 0 0 0
349 1 7.136493194854009 0.5913008279906062 3.731882721668025 0 1 0
75 1 6.696680183812072 10.749265380410268 3.111776835239637 0 -1 0
923 1 8.086305187662536 0.2684821904919943 4.682918679941911 0 1 0
403 1 5.951753590618747 0.32787194409545634 3.9740008448482294 0 0 0
378 1 7.705789393464433 1.1017443323379994 3.1492828161902597 0 1 0
238 1 8.5132787632105 0.8859493803129421 3.9377521468314765 -1 0 0
54 1 7.771230765307858 1.3254964207422117 4.547239057406553 0 0 0
466 1 9.85455003880552 1.498923368896348 3.3164902210030114 0 0 0
393 1 10.889763424412372 1.431022201299506 3.88403459318313 -1 0 0
216 1 10.065643444404126 0.9338858421594283 4.183349610645068 0 0 0
491 1 0.6884794065507919 1.9554050358578483 3.388878660511868 0 0 0
638 1 0.8992872991936501 2.750838693518248 4.271902858631166 0 0 0
817 1 10.2155506633139 2.2170113227631885 3.744801734032407 -1 0 0
58 1 1.6033923332576834 2.5462583486914134 3.5168874584824192 0 0 0
633 1 10.90049293250299 2.6226814934907092 4.570820643244924 -1 0 0
469 1 2.1809351773438266 2.716340030581935 4.426573011360354 0 0 0
219 1 3.0300398735543066 1.881386031861578 2.927029344198458 0 0 0
63 1 2.5835240289709214 2.7007702623838137 3.4523374058249385 0 0 0
222 1 3.0096956089723164 2.1321135815290826 4.421299797167296 0 0 0
387 1 4.395780349365169 1.5443087237352633 3.4023937199070025 0 0 0
423 1 3.565119340012861 2.448383623117362 3.6517291508811756 0 0 0
453 1 4.072135539336639 2.3742874475344955 4.665712121520992 0 0 0
447 1 4.466686052154124 2.6416939811345563 3.220201374152939 0 0 0
810 1 3.4155027882926783 3.143238654945231 4.577421800908851 0 0 0
232 1 5.008616991205132 2.1542578428449652 3.9920451078994117 0 0 0
401 1 6.024266192503652 2.24813511200547 4.3462377199663855 0 1 0
241 1 7.268449852138399 1.9325163658633104 3.8436717915477816 -1 0 0
227 1 6.476785992980483 2.6631952334154434 3.426301624407062 0 0 0
402 1 6.6547733473161 1.569995623608942 3.100465098461278 0 0 0
413 1 6.745850018520881 3.0187239094535685 4.3977383086358115 0 0 0
133 1 9.29726198534938 2.367984183760103 3.3467122636857787 -1 0 0
388 1 9.23945167123364 1.749740349159206 4.182343872279316 -1 0 0
358 1 8.320833377033667 2.121663631014349 3.9383592551579274 -1 0 0
236 1 9.083900288736416 2.7415639393623312 4.246953381617677 0 0 0
269 1 10.305687717931509 1.7933383404524468 4.721894041301524 0 0 0
682 1 9.981676095464762 3.0434946516216317 3.1012301978800685 -1 0 0
56 1 9.768478497777014 2.693791691143639 5.145202232983484 -1 0 0
262 1 0.4697166163253407 3.6897884543421204 4.4592570884121265 0 0 0
92 1 1.0636980066013508 3.511661184513636 3.432180405021559 0 0 0
708 1 10.479223491516155 4.060455268043738 3.717679356228525 0 0 0
668 1 0.03296468637954969 4.638069932159368 4.750244003717806 0 0 0
635 1 0.6434553713562445 4.51926508400662 3.5653465300848537 0 0 0