LAMMPS data file via write_data, version 7 Feb 2024, timestep = 25000, units = lj

2743 atoms
1 atom types

0 14 xlo xhi
0 14 ylo yhi
0 14 zlo zhi

Masses

1 1

Pair Coeffs # lj/cut

1 1 1

Atoms # atomic

257 1 0.5165862288310761 13.90351094470939 0.010710603052992478 1 0 0
32 1 0.1498296380019672 1.7169276293054525 0.7145875538660783 0 0 0
238 1 1.764434381877105 0.2740775031511933 0.8889073392420433 1 1 1
515 1 0.5874646905710856 0.7782179740950839 0.6640781230738373 0 0 0
496 1 1.4680588405001471 1.4862440441728966 1.2934413118526544 0 1 0
6 1 1.480742566139357 1.0538685963282508 0.2551471735920351 0 0 0
627 1 2.4342687638241274 1.6966113363033895 0.5444751698444275 0 0 0
1321 1 2.5282094107074036 0.16450849304861007 1.4776746084058134 0 1 0
37 1 2.3696808465854287 1.2130469404554858 1.7279055855795722 0 0 0
603 1 2.5517322891098364 0.6668744923754923 0.1946130437720065 0 0 0
354 1 3.562593907951305 0.24355124228051322 13.884357883002444 0 0 -1
545 1 3.1901105135876424 0.7384711617570141 1.1223250173316193 0 0 0
245 1 5.071687942262486 1.0843022564528602 0.3923680371569336 0 1 0
527 1 5.042844317613528 1.0424452950854126 1.4895582287473579 0 1 0
2478 1 4.181664629759646 0.46379502750232215 0.8005490228864863 0 0 1
36 1 5.569469445848033 13.995986963113085 0.19388761639836433 0 -1 0
2732 1 6.177443752704336 0.6929751678689561 0.8138684902922934 0 1 1
2208 1 7.244697939099559 0.3394019910409194 0.7646007426849689 0 0 1
1361 1 7.835026471127374 1.361676477875587 0.6008125225891578 0 0 0
282 1 9.208912597076145 0.2233233313710199 1.1300616770324179 0 0 0
2508 1 10.211520031026497 0.4145789299652229 1.2134614562052155 0 0 1
2193 1 11.446810195166655 0.633301973535569 0.6337235031192752 0 1 1
68 1 10.420429765990749 1.1882815384687417 0.6524475205186363 0 0 0
1054 1 10.81813060802856 1.3758410747925753 1.7572944296983268 0 1 0
2236 1 12.558628448217508 0.5204427768426926 0.3901329268878464 0 0 1
2543 1 12.817468204676672 13.920084138275042 13.545021086370324 0 -1 -1
237 1 13.910128790455111 0.7651199937188616 0.011535837640654413 -1 1 0
73 1 13.174938773873775 1.4730508815082268 0.5212616595518378 0 0 0
539 1 13.55299308345263 0.7677872298120625 1.2069939757733152 0 0 0
520 1 0.5377335308675912 2.838101868532506 0.20522305755408277 0 1 0
573 1 1.1178388840414888 2.0591439284880995 0.03748796837541775 0 0 0
295 1 0.9196948307603486 2.3090892875787796 1.0561812158723338 0 0 0
517 1 13.926981474239028 2.996246805201849 1.1969724027887467 0 0 0
2573 1 1.52061408228684 2.9654617552559746 0.4564499101828832 1 0 1
63 1 1.988419571691784 2.4036080468531202 1.2546922731209924 0 0 0
2499 1 3.117812435559896 1.8839957891993517 1.3173772945251707 0 0 0
2528 1 3.7217988066311443 3.5492962833255013 0.7867379243021396 0 0 0
806 1 4.94197448852857 2.2026194017947236 0.9011013100491009 0 1 0
277 1 4.100105430023665 1.4940915577088898 1.1008827827139598 0 0 0
8 1 3.9873253962898234 2.536567999000418 1.17643556502946 0 0 0
2530 1 4.350881748293556 2.8451308174153067 0.26999009813772923 0 0 1
528 1 5.795096085775 1.6750491534334857 0.7787856187320653 0 1 0
16 1 6.855698011375036 1.658090164940121 0.8719073688606357 0 0 0
781 1 5.983967012031653 2.78260859930571 0.658341718221237 0 1 0
2539 1 8.552255706541773 3.1807820166274787 1.4303299886009277 0 0 0
2510 1 7.980102080336892 2.397259142142318 0.7884919295183047 0 0 1
2564 1 8.815116404905853 2.0524961074053043 13.8838714423327 0 0 0
306 1 7.822842576224532 2.8856968729445347 13.766576651113056 0 0 -1
42 1 8.75374609234817 2.8988270021082942 0.41925854618605474 0 0 0
281 1 9.646360229454258 2.2333323035998087 0.5353561639152379 0 0 0
314 1 9.28829091680755 2.422111474183507 1.3967682818601408 0 0 0
43 1 9.80012709166662 2.8603713306316374 13.761288449736906 0 0 -1
2513 1 8.762653679194207 1.7474734845726492 0.886321027781511 0 0 1
287 1 10.537302713889863 2.1507753593883403 1.0958873379290122 0 0 0
2740 1 11.305155496930507 1.8182001950928997 0.4508755774749546 0 0 1
47 1 12.460280641416789 2.185257749689347 0.2698020542039887 0 0 0
26 1 11.500398177386574 2.2720525241675524 1.4676984635668073 -1 0 0
81 1 13.384727317906226 2.4549247386112243 0.2402537999814986 0 0 0
103 1 0.7628961992505386 3.6412370706079273 0.8711502638733122 0 0 0
297 1 1.1398845557859318 3.2148722930327946 1.7715224514129622 0 0 0
2557 1 2.5638955556641196 3.6081267146527582 0.43024330733031735 0 0 1
104 1 1.7095088832618843 4.105134253557228 0.8416147409750976 1 0 0
38 1 2.9038742848989774 2.9559052574974287 1.193784909644262 0 0 0
654 1 3.302027727198111 4.255758999803364 0.12191694697717745 0 0 0
134 1 2.881819567267518 4.159214004575839 1.4539787804688533 0 0 0
146 1 4.080183343335524 4.406784169247065 1.1541104016335695 0 0 1
2533 1 4.74594935385517 3.4730443631018098 1.0636922422998198 0 0 1
2479 1 6.31884919801612 3.720567176669903 0.30418075076850976 0 0 0
807 1 6.981138610015127 2.688047415195742 0.3714885711901914 0 1 0
861 1 6.702168310789364 3.342630541975399 1.1904474675270442 0 0 0
2511 1 5.752090763490715 3.687483500124028 1.2293077734145101 0 0 0
275 1 7.582396626202898 3.4554810460636394 0.6411957310227616 0 0 0
67 1 7.297257279590327 4.119873048001637 13.982059753440925 0 0 -1
2541 1 9.43442588406765 3.616642850206765 1.0914429019779854 0 0 0
122 1 8.29819004225379 4.092055418297506 13.59170640489056 0 0 -1
283 1 11.285792119967562 4.078091049376617 0.9964475829529049 0 1 0
336 1 10.535957668369235 3.297021928399762 0.5493588697100039 0 0 0
44 1 11.687236108787596 2.8467762520762694 0.6001437417137769 0 0 0
371 1 12.624805317342647 3.269762354904257 0.6793124590259593 0 0 0
124 1 12.035608630411849 4.128462814526694 0.2361849351232472 0 0 0
50 1 12.192364340983254 3.2254439802286123 13.695413184954345 0 0 -1
321 1 13.706788046655232 3.4274797609520937 0.3193395017108814 -1 0 0
345 1 1.6331421214139628 4.664659458529357 0.006287115603045555 1 0 0
613 1 13.873819058641674 4.47903426634603 13.658656005062882 0 0 -1
384 1 0.6458381667206113 4.708134606973181 0.4262422939870191 0 0 0
108 1 2.5105107529825275 4.621521804164343 0.635685239724451 0 0 0
87 1 3.36518383053508 5.337813844660713 0.3386891741386314 0 0 0
660 1 4.796944239256912 5.18868966637408 1.2268335467622853 0 0 0
438 1 4.225701036293782 5.5636476518120705 13.283171470980102 0 0 -1
91 1 5.017692448402906 4.402393403679535 0.7644858535867387 0 0 0
435 1 4.56413079806233 6.056251794804776 0.3107142161350066 0 0 0
136 1 4.819802776649029 6.8818435145285894 13.278019471117933 0 0 -1
356 1 4.873442709299745 4.1849017446075045 1.851375314687169 0 0 0
168 1 4.420393687158885 5.0014824798068345 0.21028656418000738 0 0 0
2590 1 6.014582931750705 4.940918356448148 0.5016807902777322 0 0 1
2540 1 6.61679227559586 4.374760817280139 1.074958937970726 0 0 1
2594 1 6.5536694969546705 5.681916920457518 1.2372591675226685 0 0 1
96 1 7.01887597333526 5.051111221398466 0.47854971381985784 0 0 0
394 1 7.141618567305952 5.059999000498804 1.7598439572519287 0 0 0
173 1 7.703373766638973 5.600118534652147 1.1161409591367928 0 0 0
2596 1 8.062647881306034 4.80645146571446 0.4654576252950244 0 0 0
121 1 8.360728492917683 4.927742105310055 1.3803177806905773 0 0 1
2293 1 9.073512933847729 4.714149996295118 13.901625419886033 0 0 0
2538 1 10.474409880006965 4.279895781178201 1.5736273231974158 0 0 0
399 1 9.316285849979876 4.666772580300627 0.8965219023002635 0 0 0
364 1 8.908225431586622 5.845546925319882 1.2224009381664247 0 0 0
2630 1 8.587494340120868 5.567799115121783 0.29358916681761604 0 0 1
48 1 10.37451202804889 5.196962787829377 0.9743855494642042 0 0 0
2029 1 11.151209106016745 4.866901764489176 0.15204019168291558 0 0 1
2597 1 10.083439379000128 4.320312211768607 0.26852609712096687 0 0 1
315 1 11.515629525574138 5.153306534785948 1.3046976424821721 0 0 0
76 1 12.768107005984906 6.10326789336147 0.49234635213379957 0 0 0
382 1 13.012166542794917 5.134432323246739 13.78140215033006 -1 0 -1
291 1 12.231353290970844 5.101042453569791 0.5734120460224407 0 0 0
614 1 13.833919672636135 5.363924478562793 0.2778099145639502 0 0 0
2581 1 0.5412281408886083 5.470313704434724 1.1193187572822263 0 0 1
80 1 0.37265853229799084 6.371350014024114 0.38289796550335453 0 0 0
102 1 1.1148494998648695 5.664419282404481 0.17615244869373198 1 0 0
406 1 2.3765945516755593 5.572190067196645 0.36916748290181095 0 0 0
166 1 1.1120637678516183 6.422148924891664 1.5035185266322413 0 0 1
768 1 1.7657190504556384 6.3868028392812315 0.678660350369707 0 0 0
2608 1 2.771224170958437 6.484080262118375 0.4696863537656284 0 0 1
112 1 3.731865201315946 6.487804303571406 0.8633307170856441 0 0 0
412 1 4.597470835229411 7.11469913480737 0.48009042157905424 0 0 0
411 1 4.094439942570292 7.351969067914759 1.9603993547204932 0 0 0
117 1 6.419834171435281 6.08839961861324 0.04951536176209145 0 0 0
2314 1 5.720123256102591 6.883121685167651 1.0796876744897286 0 0 1
691 1 6.622567784847534 6.63027682731338 0.8661668705298258 0 0 0
472 1 8.411352906850102 6.492348586498338 0.5210612268688695 0 0 0
442 1 6.837484481997771 7.1163502443195386 13.893552048177458 0 0 -1
2627 1 9.472872527449447 6.539504906759365 0.5208585697606135 0 0 1
2649 1 9.166642696628328 6.832351730409883 1.3966906991172123 0 0 0
420 1 9.870161497518971 6.039950218543532 1.2782728128625016 0 0 0
648 1 10.237741015715242 7.0567234586437015 1.1786829410088129 0 0 0
2569 1 10.221069051205067 7.077170734755316 13.87180936694653 0 0 0
2601 1 10.403002040340542 6.282361002868822 0.4069391913905267 0 0 0
127 1 11.551480836882735 5.885683925199015 0.42221331190007205 0 0 0
2548 1 11.1390727624274 6.9741853518232615 0.7031869372153279 -1 0 0
678 1 12.448166532967894 5.730154837323987 1.4632792737142482 0 0 0
2059 1 0.12132744400921722 6.769706939677821 1.274599641825437 0 0 1
125 1 13.042126728774974 6.74819032523012 1.2405227247838182 0 0 0
135 1 13.417492038877846 5.966873482476826 13.41680701574453 -1 0 -1
343 1 13.365386052176914 6.621822723761706 2.166991598361714 0 0 0
2248 1 1.1426491024853884 6.773774633406454 13.878272479582646 0 0 0
703 1 0.08496087394208562 7.299904114253301 0.29216827945608015 1 0 0
430 1 1.4686696693190209 7.312133355176931 2.0849393563280647 1 0 0
436 1 0.926733084930394 7.374070187268255 1.190521955619612 0 0 0
2114 1 2.487795672001725 7.90171962058022 0.5428356313929019 0 0 1
161 1 1.9855811973445692 7.316231788807764 1.2145076741391412 0 0 0
389 1 2.96561907697578 7.202560916912858 1.2943716542178711 0 0 0
383 1 3.6783433240824714 7.92669092831781 0.34639985318186767 0 0 0
141 1 3.6167552989417038 8.21796147403992 1.8033015966362553 0 0 0
2640 1 5.31396595519617 7.85582175765487 0.9436224842326094 0 0 1
2642 1 4.301633938559041 7.906598374450878 1.1304345944682255 0 0 0
2616 1 5.978609186260885 7.615675072868222 13.97914249281794 0 0 0
368 1 6.043375450934736 7.708427436985341 1.7857659295736803 0 0 0
441 1 6.459634079178042 7.756878662838475 0.9256700099510489 0 0 0
169 1 5.804219193854653 8.602966332551862 0.29870848136544476 0 0 0
149 1 7.489099042410076 7.198559950005187 0.813154265425535 0 0 1
2629 1 7.700467521337866 8.220126629153997 0.7165088138206646 0 0 1
2652 1 7.972188927293344 7.511482914632119 13.947021094848711 0 0 0
2316 1 9.613283444654707 7.79196356226794 0.9994384340670925 0 0 1
2622 1 8.513797641186253 7.406502043388681 0.944776962023709 0 0 1
153 1 10.596682540684574 7.893620475565223 0.38488240984691013 0 0 1
421 1 10.505850207556282 8.140053988597968 1.4102526735574357 0 0 0
427 1 12.272817125034496 7.390121928517883 0.8109896468524116 0 0 0
155 1 11.535222958876364 7.938780689284755 1.2417895109330446 0 0 0
2299 1 12.05345639361386 6.673774150192364 0.11158997653402584 -1 0 1
2351 1 13.538093141360696 7.756153897113337 1.076471604697712 0 0 1
2322 1 0.06418775344733214 8.335179801735357 0.3498941646957593 1 0 1
2320 1 0.575167327304568 8.435986455157574 1.1814876807995385 1 0 1
2384 1 1.2458788988812874 8.700658946017095 0.2955245166181104 0 0 1
163 1 1.3468112713011908 9.361928459238753 1.346598006638969 0 0 0
2411 1 2.2792282810461537 9.014688801182494 0.6550115881720053 0 0 1
465 1 1.497914910368507 10.363861254251534 1.3595910382212615 0 0 0
2144 1 1.4660343005978411 9.818760886115037 0.44713586318126974 0 0 1
437 1 2.488435855810229 9.840660551812705 1.1451277088396046 0 0 0
131 1 2.6628772307632818 8.224454193774166 1.534548851596856 0 0 1
2363 1 3.672755290517534 9.358509409221336 13.99331673265269 0 0 0
2062 1 3.603088591869981 9.974320060694977 0.9322738370596474 0 0 1
409 1 4.800986380190024 8.497566878738303 0.3074740427346033 0 0 0
2035 1 5.354323744840658 10.092916239928261 0.5865218654289458 0 0 1
217 1 6.937369073570273 10.22563566043035 13.452527026765065 0 0 -1
2341 1 6.192878062760184 9.577576149048562 0.7132986046430649 0 0 1
2671 1 6.936815420252964 8.954888414678356 0.7376554164174467 0 0 1
469 1 5.697174063016843 10.121387883753039 1.6009812369460759 0 0 0
2623 1 6.993296327530231 8.20162036545599 13.969758129233773 0 0 -1
419 1 8.01522696851114 9.28096746975651 0.7990065256466365 0 0 0
2676 1 9.845427082082704 8.155939915119543 13.78215969714273 0 0 -1
182 1 9.604831589640352 9.308260226119932 1.2834241786380582 0 0 1
2699 1 9.042941270183418 9.49013334086119 0.33912061921096454 0 0 1
198 1 8.745164617862846 8.464590765634762 0.6251059303888463 0 0 0
2380 1 10.080449388738755 8.712361244097362 0.6862962745925372 0 0 1
2655 1 10.745870219265624 8.789043116745832 13.981455763208944 0 0 -1
748 1 10.258639458515425 9.924882558868493 0.21050619590694755 0 0 0
128 1 11.844993225608926 8.316541728042996 0.2880483029485196 0 0 0
2606 1 12.531905170894607 9.315412572064758 0.7785815925506933 0 0 0
2321 1 11.611560836360828 9.68700655722277 0.31796202884345487 0 0 1
231 1 13.025065482850554 9.828438633972953 13.326388921587041 0 0 -1
1017 1 12.889703512896931 8.165888459224735 0.25422755155418864 -1 0 0
2683 1 13.2997386130649 9.15124236449978 0.22727346852131375 0 0 0
2665 1 0.526389606446961 9.288019075692278 0.5218841348492055 0 0 1
2663 1 0.5822886171328157 10.443633733063091 0.5774555813137069 0 0 1
2688 1 1.3074647746243007 11.182781406844493 0.5212023638955318 0 0 0
1807 1 2.0841115324281647 11.32751549775255 1.3153110223416458 0 0 1
193 1 2.9284871099292475 10.799480245192553 1.1268657163067448 0 0 0
440 1 3.438348137975407 11.617517635165823 0.7546878283000714 0 0 0
2118 1 4.462649057802774 10.665135254996976 0.5213559320170998 0 0 1
443 1 5.649930213794061 11.383930832600727 0.3525353106330069 0 0 0
526 1 6.365533199925283 10.68661217990435 0.3858330850070407 0 0 0
10 1 7.200338112025909 9.866222572944833 0.4792341978238728 0 -1 0
2103 1 7.382957086923212 11.007907134535158 0.08901403729067148 0 0 1
2482 1 9.250741332311415 11.441121563005872 0.8283912132903424 0 -1 1
2426 1 8.603250296525443 10.897809548372143 0.17035469564494538 0 0 1
203 1 9.280274734930183 10.395611039319327 0.8972224730961637 0 0 0
232 1 9.816174137588458 10.8392209805488 0.048377178629328506 0 0 1
486 1 10.979609365283144 9.5971304997635 13.484635623932412 -1 0 -1
459 1 11.10459593763844 10.513485445617306 1.0102308806957734 0 0 0
2572 1 11.078052306292037 10.672156007588214 13.895921205589406 0 0 -1
809 1 12.044219034936775 10.586708279903004 0.5052278239963267 0 0 0
126 1 12.657102144330365 10.361961114546869 1.3207584002917045 0 0 0
514 1 12.999148867107916 10.10842834367361 0.31799654771638697 -1 0 0
463 1 13.63691939539233 9.943094194126381 1.1012788726158005 -1 0 0
263 1 13.811268848776745 12.105217795340865 13.934934374059985 -1 -1 -1
2661 1 1.031577786049898 12.153392831995891 0.1239089905448555 0 0 1
2638 1 1.72841865179546 12.352317097225205 0.9491972371696428 0 0 1
2440 1 2.0319705968109916 12.54804863879516 0.038321664457553 0 -1 0
7 1 2.4596924479566145 13.315220030292762 0.8510523465184268 0 -1 0
738 1 2.4854263701770067 12.306726810779145 1.6883554733546895 0 0 0
2667 1 3.645226447837788 12.151963241235837 13.693509062130628 0 0 0
1043 1 3.7840043707634776 11.998838682686788 1.6822775732089048 0 0 0
522 1 3.1088072898027144 12.718273981597754 0.3975610982742928 0 -1 0
471 1 5.887258119622625 12.407095397019944 0.5181292724274159 0 0 0
2672 1 4.625616852656448 11.767148544391304 0.962472459431491 0 0 1
195 1 4.021511694762717 12.51884127377564 0.6460212209859906 0 0 0
495 1 7.15583208400766 10.841667668187412 1.0485606268282608 0 0 0
805 1 6.722901463093191 11.824433509898599 0.9875203077549616 0 -1 0
2716 1 6.534860334051596 12.659572620844976 1.5011631265132026 0 0 0
215 1 5.646859675177614 11.90703619747478 13.436366367532653 0 0 -1
1079 1 7.375655150428032 12.177448660638557 0.30505771168652823 0 0 0
726 1 7.569399842285284 12.252498268205773 1.2787090837868813 0 0 0
2706 1 8.054504059737265 11.471869718925378 0.7598016771048952 0 0 0
2673 1 8.091408910947129 11.645406921848776 13.722625410878507 0 0 -1
2481 1 9.028231541074307 11.731625015551343 13.69873800809303 0 -1 -1
223 1 9.723429223337448 12.563853318169588 1.5661357560250164 0 0 0
254 1 8.717205970547377 12.179709197033146 1.3457423081249662 0 -1 0
2404 1 10.492394578717409 11.370131041396585 0.7831426417092926 0 0 1
533 1 11.058587590175003 12.095515913746759 0.12922043633866645 0 0 0
481 1 11.616885576486967 11.640669156302149 0.9666851140111608 0 0 0
205 1 12.798433781998106 11.421702042846828 1.3334339401825301 0 0 0
207 1 12.03143430764079 12.422004501168892 0.4723406694501256 0 0 0
428 1 12.849615086098128 11.748827349052611 0.2587926008226638 0 0 0
262 1 13.716600060674232 12.157783285313036 1.1611640573076991 0 0 1
2414 1 0.7821911413876994 12.794689773023263 1.3392459969942458 0 0 1
2 1 0.26469494554475814 12.893553983037998 0.481098077043699 0 -1 0
2498 1 0.42105972067757635 13.700818096248772 0.9458360351015261 0 -1 1
2666 1 2.544540422716985 13.643621907355774 13.892671009027776 0 0 -1
219 1 1.3131864992690412 13.178934378929902 0.32123040384588725 0 0 0
519 1 3.3471869175127273 13.957093627673078 2.1836809649179028 0 -1 0
2145 1 3.333077069334303 13.807317502164821 0.6817080941622848 0 0 1
2694 1 3.2591407875196703 12.943169971252969 1.4647805271570806 0 0 0
296 1 4.185676185393249 13.40399912603788 1.2517626999708094 0 -1 0
2724 1 5.0218176897062605 12.886045511006744 0.7195325475174424 0 0 1
19 1 6.117482576279534 13.374183496459016 0.8549676494228313 0 -1 0
2674 1 6.663791028828186 12.990947758702928 0.055754503000547316 0 0 1
2210 1 8.259358908584806 13.799698982487794 0.8666308621081581 0 -1 1
247 1 8.382606279805726 12.715323035649059 0.5473970833184783 0 0 0
2207 1 7.240400961968317 13.19690460829988 1.0492762778903655 0 -1 1
14 1 7.5851902950434384 13.52054812976175 0.142973148455349 0 -1 0
498 1 9.123299205894064 13.140449383120538 1.0030225406997888 0 0 0
2156 1 9.134760111417144 12.723770093695551 13.87040185333454 0 0 0
477 1 10.60372505575939 0.01152579766559438 13.968530249806841 0 1 -1
2489 1 10.15955917077513 13.306332355524564 0.8538734482699257 0 -1 0
2715 1 11.044050612922405 13.822681376851811 1.1847280671840836 -1 0 0
20 1 11.255852428665124 13.216578160731148 0.4619035455853519 0 -1 0
483 1 12.696127952181643 13.44831694314621 1.355559224150294 0 0 0
786 1 11.667577004655938 12.832870674271788 1.3422996931232158 0 0 0
253 1 13.344268552897637 13.931326328010076 0.56771856177995 0 0 1
466 1 13.623237789188222 13.159795959500034 1.2069939651805441 -1 0 0
2714 1 12.664256052945992 12.370326561375238 1.3080901491994557 -1 0 1
213 1 13.666587914945282 13.903353594704033 1.7902265224927887 -1 0 0
796 1 0.47355838305946696 0.5400000414717993 1.6456751877276372 0 1 0
302 1 2.609318909648055 1.4141490650750899 2.7541936796562996 0 0 0
799 1 0.01878999250711757 1.357613666605409 2.621649720685795 0 1 0
298 1 1.6789668141569152 0.3969223990911369 1.9629703601696138 0 0 0
276 1 4.297135537307782 0.24963908656175554 1.793142704843971 0 1 0
272 1 3.623902035326806 1.218576350754905 2.0124849843037067 0 0 0
737 1 4.108830250856915 13.86882203856601 2.883116916375178 0 0 0
1354 1 2.5717061593519484 0.45688074491558395 2.443453322551366 0 1 0
273 1 4.494573464713729 0.8398122245467373 2.558184567442438 0 0 0
2204 1 5.3108601856349 0.21331290834574126 2.5546724354601693 0 0 1
251 1 5.954780553574742 0.2561530379524704 1.7403840514599764 0 1 0
778 1 5.937475754016563 13.415147403039498 2.582382369240629 0 0 0
284 1 6.471522682824423 0.5464838251217652 2.5268614812704158 0 0 0
560 1 7.765128240346408 13.907919324387455 1.769937273821816 0 0 0
246 1 8.208682627542077 0.44039381135859007 2.6512295684036284 0 1 0
723 1 7.014625891280403 0.6401750074461159 1.6513475475224395 0 1 0
2728 1 8.184496125878196 0.7093143860541199 1.3067857594927863 0 1 1
1058 1 8.8410008792434 1.3288258960014618 1.8569052809824622 0 1 0
511 1 9.419599068328807 0.6046636006244804 2.2848167812439164 0 1 0
310 1 10.992005158718893 0.9513696569610655 3.2186781833450273 0 0 0
787 1 10.632513520371534 0.24723848558553874 2.1658096788509793 0 1 0
256 1 11.626959825557105 0.8162339280201761 1.6623563920684468 0 1 1
538 1 11.888197783886692 13.827476470098878 1.7288662662180618 0 0 0
2547 1 12.59858308149733 0.5557472021510245 1.4677964273909518 -1 0 1
25 1 12.115014104496533 1.3482160352506396 0.8857031788164413 0 1 0
841 1 11.881748951652229 0.566808109398957 2.6615745097784624 0 0 0
565 1 12.463630967401144 1.5280130302080959 1.889154226188642 0 0 0
1073 1 13.05626169435838 0.8153156017229661 2.393784800146944 -1 0 0
58 1 0.5949186534394153 1.5748335591213964 1.8321066120829865 0 0 0
817 1 0.2087339407134443 2.5869429760256835 2.1336733846280596 1 0 0
820 1 1.3757976309285227 2.2989237052913074 2.1126266338422917 0 0 0
327 1 2.517238758816291 2.327643286619117 2.146813831060751 0 0 0
571 1 3.745105700463941 1.7899244604100575 2.931653242713876 0 0 0
305 1 4.550433260244431 1.8726167718820597 1.8896399994174882 0 0 0
604 1 5.411278566253564 1.5031445593726478 2.4184936236703853 0 0 0
1082 1 5.899806984025263 2.4557564942238987 2.760746873390289 0 1 0
101 1 6.572650916529247 2.380469501371935 1.3604318148888954 0 0 0
2526 1 6.220866829840424 1.320008029529976 1.6499123708929755 0 0 1
873 1 7.630977982435873 1.6902559771520242 1.6561777711539079 0 0 0
558 1 7.548574224564774 2.334442150662426 2.5777157804262285 0 0 0
21 1 7.586608044692211 3.1024296015285864 1.6180913319662542 0 0 0
561 1 9.729881801063469 1.3447075165695823 1.3715033170429491 0 0 0
309 1 8.430633726289606 2.3092118740385303 1.8862536619677028 0 0 0
566 1 10.173995534313047 1.2912983206420423 2.5907129360819225 0 0 0
1164 1 9.947164659775364 2.0957096653294642 2.1969421500666826 0 0 0
591 1 11.417546528445584 1.6798058330312284 2.5845960798886063 0 0 0
2492 1 11.97509793416224 3.520656903667394 1.4917385004811827 0 0 0
593 1 13.550290069595448 1.7655345116892247 1.589968002050888 -1 0 0
317 1 12.207454513852781 2.5758938500553437 2.2161223458940036 0 0 0
75 1 12.815817730287888 2.3197275759095923 1.230505576650097 0 0 0
828 1 0.8726696947786263 2.012737723526066 2.881586829744025 0 0 0
649 1 0.3237394815977152 3.7648958244985202 2.0419978477310594 1 0 0
61 1 1.911403098367493 4.5379001150125795 1.7369247415671452 0 0 0
601 1 2.8108798893747386 2.5108326403121755 3.199864747945095 0 0 0
90 1 2.0586876226433852 3.524023230219369 1.5113951733240527 0 0 0
326 1 3.7275072544223353 3.5180110238865283 1.8150537330585967 0 0 0
59 1 2.7947162722592456 3.3393473909868305 2.135176229521167 0 0 0
663 1 4.470625373928334 2.7201082568766686 2.872750205664992 0 0 0
359 1 3.615678246322991 2.4360570434029376 2.227404370293378 0 0 0
557 1 5.59132316739728 2.4652311652333965 1.6739268772904847 0 0 0
834 1 4.64114130754243 2.942604463301901 1.946267008455806 0 0 0
610 1 5.558566870436311 3.4240106457506285 2.2307155605009785 0 0 0
45 1 7.045609107615657 3.9496051074364575 2.160631515351925 0 0 0
365 1 6.342962410007563 3.604143120735633 3.0364516224680864 0 0 0
86 1 7.358864334544892 3.3119753428263303 2.9929400483365467 0 0 0
608 1 6.621237926447012 2.9389899618060604 2.2111858395015744 0 0 0
564 1 7.623578823356009 4.192029838648574 1.3206410271975362 0 0 0
279 1 7.891903501730754 4.547556311160603 2.3342595960761687 0 0 0
584 1 8.245694422678435 3.415626633412609 2.2995942078474543 0 0 0
366 1 8.48745381906091 3.944205609051699 0.734749482033297 0 0 0
99 1 8.79717529209785 4.073079283526586 1.7688157728133027 0 0 0
51 1 9.184417367700108 2.8687978234432845 2.306126905476163 0 0 0
395 1 10.137447269160946 3.1279949515021532 1.8588393198470756 0 0 0
594 1 10.873430602690059 2.3636372301531146 2.2220552036034924 0 0 0
586 1 10.4379741994771 3.83218227812408 2.6251910407800825 0 0 0
895 1 11.049206252318848 3.2511781213165123 1.5530787120229292 0 0 0
672 1 11.43711952359422 3.2218846312993756 2.5927407255248696 0 0 0
340 1 13.068393051958619 4.292597795065051 0.577633489854956 0 0 0
341 1 13.989509998742562 4.2905634144907525 1.0957998058582386 0 0 0
618 1 13.188395133373898 3.0386574058897042 1.9578620713790527 0 0 0
402 1 12.596346097350148 3.6865053939892056 2.520765192948145 0 0 0
598 1 0.9345842632379548 4.395339262648244 1.5384937982679068 0 0 0
158 1 0.23223403403161724 5.898332795912609 2.0534226778077107 1 0 0
877 1 0.062055068107530524 4.9545010005385315 1.862582142232009 0 0 0
2582 1 1.6049489687489848 5.115376168865855 0.8953902460933004 0 0 1
387 1 2.713216772382355 5.372746584911176 2.4468360991862914 0 0 0
599 1 1.1846692115306576 5.261013750816477 1.9284113525126552 0 0 0
2332 1 2.788105405016748 5.206357608727367 1.3348031657329456 0 0 1
93 1 3.5806375731479263 4.616870329003394 2.107190977818394 0 0 0
884 1 2.7047099531451715 4.308368813169702 2.4636329357581057 0 0 0
360 1 3.8060158448070367 5.571367548041155 2.7369606595218134 0 0 0
2559 1 5.729007028999485 4.998202371261135 1.4895520314790907 0 0 0
414 1 6.090161777750185 4.282829590554824 2.093229511454276 0 0 0
661 1 6.450030150764117 5.542161317846297 2.3094713975917993 0 0 0
280 1 6.991588762444434 4.723218732658114 2.8257702039995154 0 0 0
339 1 8.397727835219754 5.561940095395597 2.1410613768605047 0 0 0
2485 1 10.834320548254794 5.278961282178686 2.0132996173615507 0 0 1
581 1 9.730174573739632 5.19938006135299 1.7078326869626885 0 0 0
668 1 9.596186787748204 4.337006696256169 2.341873620157014 0 0 0
1489 1 9.331116500860215 5.375172280972879 2.6532738329627477 0 0 0
896 1 10.600068965595598 5.755023648918218 3.2814460840467112 0 0 0
307 1 11.399318949464277 4.236734366518432 2.0079532266278872 0 0 0
72 1 12.415519127825952 4.472458948798984 1.2911898575833205 0 0 0
98 1 11.988386450954563 5.1369650184549585 2.190789832035898 0 0 0
645 1 12.755746386740036 4.643449593698411 2.3843049102001794 0 0 0
700 1 13.278491211800164 4.041017293065138 1.8090612872205138 0 0 0
569 1 1.1901563661388272 5.58832620822288 3.079461881659003 1 0 0
84 1 1.4406413969790814 6.333885862646196 2.4931920777023215 0 0 0
159 1 0.6344784731359154 6.879277909820315 2.383217333434468 0 0 0
106 1 2.0010511270461264 5.826856203343248 1.6659813306008313 0 0 0
355 1 2.072685474775531 7.022139683782258 2.975799195123711 0 0 0
162 1 2.9459233944105914 6.326043239610444 2.5943056265514097 0 0 0
160 1 2.9475348450483954 6.1740800366087685 1.437009094205918 0 0 0
2552 1 3.7797876155364483 5.376933190545589 1.326680967361267 0 0 1
138 1 4.60888261037224 5.621932178404504 2.084662205775999 0 0 0
130 1 3.861673390684894 6.3125077535249465 1.9810891022967583 0 0 0
444 1 5.07067943584489 7.279391492761204 1.8345831131070287 0 0 0
361 1 4.811118349836644 6.40252383264064 1.426622967707312 0 0 0
116 1 5.588912322837943 5.935480059971856 1.8811630964443093 0 0 0
607 1 5.572465462894887 5.799963787884204 0.8445864013391443 0 0 0
659 1 6.009653054059814 6.805576545046623 2.1541676351363455 0 0 0
164 1 6.915326321049976 7.197275200845115 1.6007325318403745 0 0 0
147 1 8.188095381996876 6.450806939855273 1.5668343769394206 0 0 0
94 1 7.088247125685483 6.307671296562974 1.8375355135235487 0 0 0
95 1 7.7015332957487255 6.591069611929466 2.720285795195987 0 0 0
1247 1 9.150678678195424 6.228598042642593 2.187211042513921 0 0 0
179 1 8.548368020656728 6.998721617849852 2.279580160102933 0 0 0
671 1 9.664206034788416 7.234854246984621 2.1341379531004026 0 0 0
612 1 10.195808880047128 5.948223178131893 2.3097494886365206 0 0 0
97 1 11.097946294276811 6.135816124452443 1.2828491446080479 0 0 0
665 1 13.29490699005005 4.974750684689299 1.2786093848483369 0 0 0
426 1 11.936056752689753 6.789225875456061 1.5979538012706067 0 0 0
2568 1 11.325387049089048 6.101682804434486 2.4432583202132148 0 0 0
293 1 12.415400960587645 6.1948819205849945 2.4735389490015174 -1 0 0
670 1 12.828906177392952 7.7226068592753725 1.882977337796659 0 0 0
615 1 13.316005158667764 5.55885258743036 2.3157232850038043 0 0 0
313 1 13.527493068812523 5.9249108285226635 1.3139504370366237 0 0 0
987 1 0.11662809210837857 7.748752362361254 1.877565049109012 0 0 0
707 1 0.3806777363797464 8.218093805886422 2.948536116983723 0 0 0
992 1 2.252399299376533 6.713475254974685 2.0619244766311837 0 0 0
460 1 1.1795279072478644 7.5222861306751225 3.073929438309619 1 0 0
107 1 1.6192683016436804 8.27969455915187 1.183449548438621 0 0 0
740 1 1.1832599170776008 8.262003820556682 2.1356259331497895 0 0 0
965 1 2.1808354808776196 7.896060691821206 2.344151755462742 0 0 0
2327 1 3.077021655939076 7.290138661244483 2.2493186492117516 0 0 1
721 1 4.749237296567297 6.700124055517229 2.73641809583766 0 0 0
921 1 4.805107973958589 8.377405655151119 1.8008010197559052 0 0 0
204 1 5.126883726939333 8.885829125928797 2.8491058383121066 0 0 0
148 1 5.955257543582563 8.604544692452448 1.2647220945791118 0 0 1
391 1 5.052660264315268 7.754380070039484 2.724921080974873 0 0 0
447 1 7.034582068028777 7.6381105091906685 2.52574794861938 0 0 0
718 1 6.072798794872924 8.203761614242488 2.7293269339660626 0 0 0
418 1 8.171980681302264 8.570899997538932 1.5713367553557438 0 0 0
2703 1 7.012765511830865 8.27626071583015 1.729916686430044 0 0 1
719 1 8.069278039262032 7.4711265507610465 2.9782309988920264 0 0 0
478 1 8.916055079237681 7.872172126334572 1.806994677566962 0 0 0