LAMMPS data file via write_data, version 7 Feb 2024, timestep = 25000, units = lj

7999 atoms
1 atom types

0 20 xlo xhi
0 20 ylo yhi
0 20 zlo zhi

Masses

1 1

Pair Coeffs # lj/cut

1 1 1

Atoms # atomic

7969 1 0.9314693520834219 0.4935333594301714 0.09948140176590592 0 0 1
1195 1 0.3228455738713913 0.30722761166130397 0.9395257202946882 0 0 0
7561 1 0.7347681563723654 1.2270858537249403 0.9785080439903965 0 0 0
7438 1 1.3959027643520954 0.20954733292200692 0.9890297536757573 0 0 0
38 1 0.12155534905762087 1.1171113806610342 0.2328509746058922 0 0 0
628 1 1.8058013206369743 0.9887806598542748 0.4781629665139033 0 0 0
7974 1 2.3960571551064898 0.17522288110687234 0.545525130722314 0 0 0
6911 1 4.115040121564051 1.129524055935558 0.6561957666585941 0 0 1
7480 1 4.0407024516458545 0.1655001730735177 1.0433721177266022 0 0 1
6914 1 3.1593476676728076 0.8654102535063206 0.42639308019522937 0 0 1
1191 1 5.023770023383464 0.6471768922629151 1.2806906853377638 0 0 0
13 1 5.09604194502215 1.086321915791984 0.052576273136284275 0 0 0
6300 1 5.30768563012034 0.030212863135704864 0.2938353769732255 0 0 1
582 1 6.012135304704789 0.6987215247796889 0.2803043254364942 0 0 0
7439 1 6.9384778647557885 1.2979983989760384 0.2857980460246026 0 0 1
636 1 6.72496038773309 0.4291749628122864 1.0639947305006632 0 0 0
592 1 7.717799935691883 0.6617100163566861 0.5497346791084745 0 0 0
7481 1 9.728982827554875 1.1962666185067428 0.4665991212503181 0 0 1
1653 1 8.802361981832966 0.8126871044681776 0.37692690654871003 0 1 0
7979 1 9.898111439586186 0.28420838116837194 0.048275214590393335 0 0 1
552 1 9.49541933965306 0.10050004573329085 0.8767075812178677 0 0 0
1128 1 10.634271879780055 1.2406933487301137 0.06661452133441122 0 1 0
7982 1 11.007464316079426 0.17827956275985707 0.20573240518439778 0 1 0
1697 1 10.436987038662048 0.41571004304814 1.0163781293173122 0 0 0
1175 1 12.632898903304465 1.1280392309516245 0.1006622027797407 0 0 0
7459 1 11.516943491699475 1.201216868895934 0.7694725504216328 0 0 1
63 1 12.002377081906884 0.2419727848075424 0.249376094223489 0 0 0
64 1 13.485914589822368 0.41815281039939894 1.0067540919091993 0 0 0
6888 1 14.178581052925129 0.018054047943325314 0.36408158340963176 0 0 1
6889 1 13.68980257295245 1.0564499403137935 0.05438820058431033 0 0 1
7463 1 12.978094218827502 0.044112116016052 0.17761683959855637 0 0 1
7424 1 15.146893728126278 0.6321196051896291 0.3944600866323607 0 1 1
561 1 14.543672925840694 0.7620702776500965 1.2992028036974377 0 1 0
69 1 16.527817947925993 0.8771274641330968 0.4246758987461893 0 0 0
100 1 15.87388997992713 1.1299221372526982 1.2919350747537133 0 0 0
700 1 17.295329822159832 1.1558272536909424 0.9654904696542211 0 0 0
497 1 18.265319028533735 0.866069177172937 1.1174588603112292 -1 1 0
615 1 18.43081473966278 0.7813431748597185 0.06642416799376802 0 0 0
623 1 19.347743923778268 0.20777160096752073 0.8305216621911263 -1 0 0
657 1 19.778580263506814 1.1386432885809443 1.3402275421408958 0 0 0
6341 1 0.5370902927655227 2.269728481622116 0.5485925664391608 0 0 1
7975 1 2.4989272560501727 1.4584544307395317 0.9813558079145511 0 1 1
7524 1 1.5214868873129221 1.9283413151123876 0.6913259862313379 0 0 0
42 1 2.4505996821412923 2.700536682656217 0.20613919847375728 0 0 0
663 1 2.1479848288203196 2.538017995463368 1.2215017538639936 1 0 0
7314 1 3.429563940489102 1.4805201166127715 1.3809032677187703 0 1 1
7397 1 3.0587475627423593 1.8655721243625576 0.16496460187635187 0 0 1
122 1 3.164772846597245 2.5172469133310975 1.0211072336643816 0 0 0
7484 1 4.061195722684619 2.1291285063214724 0.8284371536103493 0 0 1
7531 1 4.944774134511992 1.6279688015202252 0.995850690123907 0 0 0
1235 1 5.625408079733228 2.564405388890048 0.23720666435753732 0 0 0
6305 1 5.0782951968971055 2.704613868675902 1.185855769428541 0 0 1
19 1 6.806473345168665 1.695002210850406 1.2320005237462777 0 0 0
52 1 5.914691782313615 1.6542432339150257 0.5644132544776249 0 0 1
8 1 6.522420670026774 2.8418475673645722 0.8397756551068644 0 1 0
1819 1 5.930931300864778 2.1185955038965605 1.3905399187062866 0 0 0
596 1 7.4029061481242175 2.306217034752761 0.46356806493462177 0 0 0
7446 1 8.272655091017944 2.369529021949724 1.0076097335222893 0 0 0
1699 1 7.7834402492510835 1.4407239349114207 1.3849830731479023 0 1 0
1129 1 8.174272136285737 1.56954860970374 0.14468469159778952 0 0 0
20 1 8.809590985177026 1.5263008223180436 1.1295211528967748 0 0 0
689 1 9.15459235533455 2.2867983642797167 0.5108391908907844 0 0 0
7443 1 10.017619273321051 2.082684428021516 1.1264912747419786 0 0 0
59 1 11.084060739569779 2.086325009573663 0.7196158390621884 0 0 0
1248 1 12.070033168087384 2.1261124849404966 1.36994361512402 0 0 0
7987 1 12.819952523203565 2.616027948913588 0.8010079634266465 0 1 0
6966 1 12.146678155745521 1.9426970325826085 0.3353916636510783 0 0 1
7541 1 13.062385233160386 1.5374887760412685 0.9726395501499568 0 0 1
7540 1 13.800763296317305 2.680043895523224 1.1662421522573667 0 0 1
7547 1 13.99261611729452 1.672994992888406 0.8812045200051873 0 0 0
7462 1 13.491244851361177 2.1335007927901684 0.029567161539431955 0 0 0
7502 1 14.682534893946308 1.4692503536086854 0.01130932716417712 0 0 0
109 1 14.524899239920012 2.534772144027718 0.39212005895528285 0 0 0
732 1 15.043493867528133 1.679436136630009 1.0817707332949915 0 0 0
7468 1 15.709385842445329 1.5435222966685993 0.2652686070768749 0 0 0
7550 1 16.700796583506094 1.8672812312821567 0.6233601369182304 0 0 0
5825 1 15.735198433692554 2.56573501354343 0.738154088202255 0 0 1
73 1 18.01712092135299 1.8882757272205555 0.6198006199527892 0 0 0
1253 1 17.4555664656525 2.757391736779122 0.7830450463313546 0 0 0
5 1 19.035424607142907 1.5092382754885179 0.6058207206213608 -1 0 0
71 1 18.95576994614382 2.5181848896807075 0.739557779366169 0 0 0
619 1 19.657825925221513 2.1917070788912416 0.08587056823387292 -1 0 0
572 1 19.866390215520106 2.108564700952767 1.243594553089168 0 1 0
125 1 1.4166277687695727 4.014992705702613 0.5019917690618095 0 0 0
7476 1 1.2025858402380618 3.0737365195743527 0.550014664146298 0 0 0
741 1 0.3980013336048424 4.209701454685118 0.5303128328779065 1 0 0
113 1 0.2545418376614744 3.3263468692618607 1.0160838256414768 1 0 0
785 1 2.4499306161269456 3.519824558135987 0.8300995441890375 0 0 0
88 1 3.4018692793221397 3.0951803572606504 0.14216777405426262 0 0 0
7527 1 3.9483543661432146 3.0468568303838803 1.3762118266458054 0 0 0
54 1 3.3465493061162843 3.813539170198522 0.8921536033933564 0 0 0
51 1 5.163400498175402 3.7976902916223656 0.2837707775154736 0 0 0
134 1 4.41842793404154 3.089133622580705 0.4355607839124783 0 0 0
6950 1 4.312739082751234 4.162223144314584 0.5621552055472449 0 0 1
7488 1 4.785074904973956 3.6467332868631464 1.389500871965486 0 0 1
10 1 5.896908780172093 3.5371201290610568 1.141420986806535 0 0 0
55 1 6.7821901721611 4.065152380777655 0.6442866350512249 0 0 0
1200 1 7.571392164555542 3.268460000733406 0.6224221854900418 0 0 0
7493 1 8.507778400034686 3.387625304100552 0.8344185537238825 0 0 1
6886 1 9.950245613340671 2.9634534717842036 0.5585729770699174 0 0 1
642 1 9.520600775408225 3.5210600056073513 1.2572693636301637 0 0 0
690 1 9.883757124574268 3.826409313572839 0.17637705597856101 0 0 0
133 1 8.937045278684158 4.259774086742053 0.11363857963302008 0 0 0
1283 1 10.93516772820276 3.002661094228447 0.9729502228937482 0 0 0
2228 1 10.736542071725646 3.907143041154856 1.3524394109603686 0 1 0
7542 1 11.647105143416923 3.917945996607325 0.7272515378281823 0 0 1
2463 1 11.90170322639667 2.8703059847702206 0.6676294259170831 0 0 0
1247 1 12.592911859374382 3.67277633536329 0.014320041267955871 0 0 0
1829 1 13.398834842078386 3.5103669191540754 0.942148464171399 0 0 0
142 1 13.935448323139324 4.128523018504692 0.15572029720698652 0 0 0
7543 1 13.699166408178426 3.104447434056726 0.03496716092701839 0 0 0
7040 1 14.552004342387718 3.369601910609734 0.8201989963827864 0 0 1
738 1 15.379842449819968 3.616960437739935 0.31024728750208425 0 0 0
112 1 15.516182999469692 3.463211547936924 1.3584950971727645 0 0 0
7505 1 16.471551224158112 3.172015216703958 1.3039979395886703 0 0 0
7551 1 16.72516107137716 4.044720964422183 0.6117600761350879 0 0 0
6414 1 16.379185622451843 3.2322267241360882 0.291332143077963 0 0 1
7555 1 17.391579940465718 3.7939496956152365 1.2794840188585372 0 0 1
742 1 18.3937911507764 3.6318836663410448 0.9437229450765927 0 0 0
7470 1 18.31791305757884 3.0470162554451723 0.06830490442275036 0 0 0
659 1 17.732540062199707 3.9425035046906145 0.22497876993312788 0 0 0
37 1 19.295548388829577 3.570237131502155 0.5354553927809231 -1 0 0
666 1 19.750714414332425 4.138467171659602 1.4270636564230255 -1 0 0
1343 1 1.0663171299178527 4.976241164619835 0.844944527615817 1 0 0
196 1 0.07255768009682413 5.1328710717724935 1.08206726811557 1 0 0
81 1 0.016911984876220032 5.3591703193946545 0.09644534955134647 0 0 0
154 1 2.140708139120392 4.492322249519498 0.010951366804636263 1 0 0
748 1 2.5734558139889137 5.5723716340554885 0.07752256811257385 0 0 0
662 1 2.0186194691168846 4.494226364558623 1.097560807625955 1 0 0
120 1 2.3247697783270374 5.446226703221763 1.2310225635841394 0 0 0
7528 1 3.795980259378633 4.63840531735853 1.4068253169395202 0 0 0
89 1 4.242456844565114 5.2565062301331755 0.4855593292899569 0 0 0
162 1 2.9177347502410513 4.762658498830882 0.6108732195904492 0 0 0
157 1 3.396725445187781 5.624232854297028 0.8580866019210786 0 0 0
48 1 5.302130272844714 4.847709306438674 0.7443279144348582 0 0 0
7529 1 6.04727751748906 4.591106680067912 1.3379092252146056 0 0 1
7036 1 6.321751934490151 5.488974807252726 0.5618603149684399 0 0 1
757 1 6.1202230974784575 4.552058621760914 0.0319208743031917 0 0 0
95 1 8.09090619678692 4.492268516888171 0.6269172389956161 0 0 0
7580 1 7.972618072002739 5.258303026894184 1.3966454974259157 0 0 1
7492 1 7.143643890205924 5.056506224160157 0.7621982600993779 0 0 0
761 1 8.060391495604556 5.529248006056385 0.42349515250571657 0 0 0
7583 1 9.997031912759766 5.327232600400887 1.1219403352125465 0 0 0
539 1 9.949227076616042 4.393715192086652 1.1064028178819445 0 0 0
1203 1 8.91929654354701 4.350472397028894 1.310178277934264 0 0 0
641 1 9.190943268369951 5.1092168407296725 0.6330848834513865 0 0 0
1292 1 10.861227618644373 5.575533942213864 0.7669457669977835 0 0 0
2836 1 10.722895078978091 4.376016366773619 0.3340119826962633 0 1 0
139 1 12.794475848297514 4.288708732760684 0.8460941256633574 0 0 0
809 1 11.607481311837253 4.9567380184358925 1.0939243695027747 0 0 0
646 1 12.728262825559923 5.091426086583174 1.3211817245356094 0 0 0
681 1 11.890892706324879 5.554353239069973 0.32689272732300184 0 0 0
692 1 12.155998255107042 4.638628601982076 0.13213168811415604 0 0 0
1288 1 13.755506461412674 4.526737145155579 1.2952448850291238 0 0 0
7094 1 14.106241834279253 5.109771335839727 0.5234001496177538 0 0 1
598 1 13.063168463779025 5.179779872732596 0.2879568520830536 0 0 0
187 1 14.960270853816278 4.6928170712248924 0.23113718810377262 0 0 1
1955 1 14.702009064734096 4.294501430193686 1.2042418599955527 0 0 0
6531 1 14.988644713577182 5.2976492992880715 1.0159826557760885 0 0 1
1293 1 15.791854111736658 4.5363636495073765 0.9855929923033443 0 0 0
1298 1 16.429529335557298 5.216283159218305 0.7727343700423662 0 0 0
190 1 18.385036373619343 4.6310450847611655 0.6323967827528653 0 0 0
1471 1 18.07734029271861 5.623012224662802 0.4754658276191443 0 0 0
778 1 17.420633723588466 4.8939486857118935 0.6836955698792826 0 0 0
83 1 19.38608321144234 4.569902854955941 0.5404072054173765 -1 0 0
6983 1 19.0069594146941 5.445002326359106 0.020358776834946468 -1 0 1
7559 1 0.769313888758086 5.987017666477292 1.053932255696924 0 0 0
6504 1 0.8485791314520218 5.929869949390355 0.03237841357856569 0 0 1
207 1 1.3333960953395165 6.859659699467057 0.45527644245014964 0 0 0
857 1 0.01758526299957399 6.905284392147734 1.3906940888394683 1 0 0
7066 1 0.3615473634302253 6.816527727262351 0.09185167335360754 0 0 1
1263 1 1.62142107743426 5.750307736533178 0.5435997341638271 0 0 0
710 1 2.544744024140672 6.3520250291484714 0.947481591430039 0 0 0
159 1 3.28514396893132 6.513998115011038 0.3326983984032725 0 0 0
7601 1 4.181502227653831 6.416229202467685 0.9540086583746235 0 0 0
282 1 3.0879740822323 7.051957213934483 1.3011031280195673 0 0 0
678 1 5.038930962244946 6.942397591134674 0.11741014486213916 0 0 0
7658 1 5.198090271857035 5.809866796971445 0.40368788205172085 0 0 1
1394 1 5.274461579390161 6.5618703263806335 1.1325422636090505 0 0 0
683 1 7.079134322166261 6.232017628780052 0.4161606440990747 0 0 0
177 1 6.056633808211644 6.448504027326041 0.28144247390608046 0 0 0
759 1 6.299575255764491 6.4672990878015995 1.4025778118207677 0 0 0
137 1 8.10901169698337 6.333416263786796 1.097428634620882 0 0 0
172 1 7.339074805359181 6.855461300259027 1.3319183221750563 0 0 0
7530 1 8.639912105251456 6.7283631742638335 0.062880027205939 0 0 1
7633 1 9.022802984485978 6.100648500039811 0.7392548739155875 0 0 1
7701 1 9.799131153579095 5.751506117720505 0.1770112359920336 0 0 0
221 1 9.618207232493676 7.001365709125682 0.4533065889630339 0 0 0
645 1 11.069733607833252 6.481353394940366 1.297612515329731 0 0 0
800 1 10.564668455742583 6.323791991138571 0.04252789104114908 0 0 0
1201 1 10.032328948344091 6.316339824806997 1.2506030754250828 0 0 0
7634 1 11.550074660467404 6.479818062824529 0.39640135720890624 0 0 1
65 1 12.652538167264288 6.224880130422836 0.41752010641504567 0 0 0
847 1 12.229524513494786 6.973132567812945 1.0571433168259328 0 0 0
1908 1 11.988491545841978 5.8668663313710185 1.2532337750928362 0 0 0
731 1 13.876641105832231 6.743892520408522 0.33921856325503896 0 0 0
60 1 13.593357651426485 5.748374921020089 1.0928228994493254 0 0 0
98 1 14.480178435509448 6.25369987528467 1.2041035788122956 0 0 0
108 1 15.508310842690205 6.209998145928894 0.544617744218029 0 0 0
146 1 14.917601280901982 7.0099503869588125 0.21894200360935928 0 0 0
777 1 16.46829514873811 6.376133237933286 0.901933978790968 0 0 0
850 1 15.929908439074218 7.139189395845144 0.337750749804744 0 0 0
7553 1 17.19289197571765 5.821203196492377 0.23840427141862894 0 0 0
186 1 17.42916924858268 6.062388636888747 1.359067832637585 0 0 0
7097 1 17.954539307054016 6.612391687647325 0.6836376958698922 0 0 1
151 1 18.861246675415433 6.100079041876674 0.946769910647925 0 0 0
7598 1 19.776441534860123 6.207598629409766 0.6129964370338766 -1 0 1
7594 1 18.796111454807054 6.545379141928854 0.01937044063649078 0 0 0
164 1 0.5909170187029087 7.676308514109301 0.8881265711771219 0 0 0
1501 1 0.23082241474498555 8.525358288104023 1.4077914191841472 1 0 0
820 1 2.2927254567132604 7.173361393743189 0.25415360977743856 0 0 0
7113 1 2.0070692513883253 7.209865922948069 1.2589006256013677 0 0 1
671 1 1.632193969526547 7.934065957629642 0.3953919975418286 0 0 0
201 1 2.3472396597698086 8.255882509490364 0.9567720167252739 0 0 0
1399 1 4.226336673352106 7.459594279573994 0.7887254704789185 0 0 0
752 1 3.2450752487807115 7.5798381195022255 0.4307065271592949 0 0 0
253 1 4.348588856435368 8.341134610668409 1.34348847776469 0 0 0
1435 1 5.126723660698189 7.963803780581752 0.1471706353295495 0 0 0
206 1 5.238797318855997 7.5957085696743905 1.1224730474239648 0 0 0
217 1 6.456484354358941 7.274805320972159 0.8286609087244523 0 0 0
7657 1 6.1978017254451485 8.498112375407985 0.40661614400228246 0 0 0
831 1 6.1859987800522465 8.407602741120346 1.4056081600175878 0 0 0
762 1 7.705969515991369 7.219554588083405 0.42364561760814445 0 0 0
182 1 7.911441239811837 7.793352625657515 1.3438661084755825 0 0 0
136 1 8.522687916567092 8.063669694534909 0.4111086798103703 0 0 0
754 1 7.183895211737557 8.068669714784763 0.6946685017646207 0 0 0
796 1 9.073238247156201 8.273965412856205 1.3345518309513615 0 0 0
7622 1 8.762235068379931 7.225384183830805 0.9744148503246123 0 0 1
805 1 9.599989700450955 8.02801144432648 0.46331865304915604 0 0 0
1325 1 10.30260392208792 7.949514697240056 1.1705664070736397 0 0 0
7628 1 10.655464932389911 7.156796913662512 0.6596583512701387 0 0 1
259 1 10.7676222384219 8.293918030347667 0.35592009847026645 0 0 1
179 1 11.605577618755447 7.622625635733091 0.5338727826126236 0 0 0
7582 1 12.545328659699651 8.054583014537698 0.9433766296094581 0 0 1
94 1 13.122170095850588 7.18107765424995 0.6662824776556089 0 0 0
769 1 13.60374310970699 8.18738604140533 0.6899037568849646 0 0 0
1374 1 14.22732383488257 7.335074220794211 0.9877531796607216 0 0 0
143 1 15.408058619647832 8.004678179060003 0.4158828215660703 0 0 0
231 1 14.625768319941965 8.306324610371233 0.9561460653157569 0 0 1
811 1 15.178541132508236 7.151851043882374 1.2653769131048458 0 0 0
1425 1 16.165256021814457 7.433847220940123 1.3525922779361135 0 0 0
7174 1 16.574779441320974 8.0627758892784 0.5226697956778932 0 0 1
7556 1 17.121308150122594 7.282476118571503 0.5728179642817559 0 0 0
228 1 17.642661641296318 8.1020474530105 1.2748665145111007 0 0 0
7098 1 17.605073323350332 8.094605268436153 0.24374594263261473 0 0 1
7099 1 18.3765680763502 7.492458096004684 0.9941263202060912 0 0 1
779 1 19.553735043441975 7.214470497204814 0.5023641936522879 0 0 0
7718 1 19.905617046639577 8.152005416407858 0.38673069516817193 -1 0 1
7596 1 18.81381833276501 8.148372940296927 0.21167642009281296 0 0 0
237 1 0.46759199121302636 9.593839921430261 1.1913940807403747 1 0 0
7060 1 0.9487847237111835 8.627943154795004 0.5881256467567646 0 0 1
291 1 1.2046516136841015 9.63266321015016 0.5408270708674143 0 0 0
198 1 0.15194617819040268 9.158197708962582 0.2527228762574709 0 0 0
7687 1 2.2185113026012626 9.917255931286595 0.41519124640650973 0 0 1
7813 1 1.8891880406625041 9.100363730928512 1.4054538873679665 0 0 1
7683 1 1.9721064410059757 8.960436487246197 0.27923117788864266 0 0 0
789 1 2.8486149868735833 9.480010155764706 1.104215180877167 0 0 0
7653 1 3.3574469780148406 8.59238051162938 0.8489620504665284 0 0 1
2567 1 3.684814531204454 9.89884867679594 0.6384354258749725 0 0 0
838 1 4.71631480573953 9.87603009568862 1.0535782941724863 0 0 0
252 1 5.328313441932603 8.817120605131532 1.0194321031673188 0 0 0
246 1 5.331916794781611 9.057002060485798 0.042614468026375286 0 0 0
7690 1 4.345104484215707 8.866145008105338 0.4358568921708305 0 0 1
334 1 6.190367248668617 9.55651720433815 0.8078072740007064 0 0 0
258 1 7.21832383872039 9.150060934149778 0.6217440449081755 0 0 0
140 1 8.116823596631093 8.76482659721647 1.028473732997486 0 0 0
835 1 7.5272497044749676 9.970893560038899 1.1580370838184115 0 0 0
7695 1 8.291970926905334 9.569993040487237 0.4431303445330208 0 0 0
257 1 9.526033282441984 9.035606888833723 0.23739187672386936 0 0 0
1364 1 9.101985369814388 9.278569271589248 1.236549146464951 0 0 0
1403 1 9.896738552698999 9.979169180495907 1.2691212711188098 0 0 0
760 1 11.2105137501332 8.670899308028474 1.3560199967027255 0 0 0
303 1 10.861966175031746 9.752479875790335 1.315664112306559 0 0 0
7705 1 10.331038390736127 8.967488390976042 0.9199275057421948 0 0 1
7703 1 11.211561270109648 9.290297277464436 0.4118666096562643 0 0 1
926 1 12.227980845648839 8.997404183861224 0.9403538269844832 0 0 0
812 1 12.609800897308338 9.98243520756715 1.0465134067285753 0 0 0
268 1 12.832597078038349 8.74998075420585 0.03637113741436932 0 0 0
1987 1 12.208149663518823 9.5986313187938 0.051776766794192707 0 0 0
7704 1 13.266176689245201 9.177623996082326 1.0657844592767487 0 0 1
1417 1 14.112521541222279 9.121258343887302 0.5550417269421533 0 0 0
7749 1 13.395850984700358 9.637233963306631 0.005190110274265886 0 0 1
7751 1 15.52599821422428 9.143728413561789 0.6794534626307259 0 0 1
7715 1 14.817729437511936 9.479387843791546 1.3186703019816428 0 0 0
363 1 16.357656739957907 9.315219459243258 1.1967851702300907 -1 0 0
7800 1 17.060198671212465 8.99718182567145 0.3975262203057361 -1 0 1
7253 1 16.44125448587115 9.778896236242938 0.30150173601248503 0 0 1
7796 1 17.428522109596916 9.364703272877131 1.2777127441898233 0 0 0
7711 1 18.224921810857698 8.925093258201924 0.6996543611897406 0 0 1
900 1 18.50329923416408 9.928477489157101 0.5181936217544302 -1 0 0
7647 1 19.296077948061193 8.762837464914709 1.0348181714921982 -1 0 0
1303 1 19.05276559617331 9.146929254177072 0.10083566891254934 -1 0 0
826 1 19.48692169624313 9.68393367433521 1.3587903838858728 -1 0 0
825 1 0.5210452046151143 11.39814119458528 1.3540899651219778 0 0 0
7067 1 0.9469323020072433 10.66369781868251 0.7741031218481981 0 0 1
444 1 1.8960737419235074 11.1432434313069 0.8390248975177651 1 0 0
336 1 2.6187815669513173 10.946236375921714 0.19813037699099004 0 0 0
250 1 2.0986788119732154 10.186472026557006 1.3426599380858326 0 0 0
7764 1 3.5860267411832067 11.412978777798099 0.5849720183617295 0 0 0
868 1 2.936234532160255 10.61145168182176 1.2046009630284753 0 0 0
293 1 4.975232953367041 10.0483170131731 0.06097764401030236 0 0 0
294 1 4.528359494632252 10.812107739622101 0.45673115713776424 0 0 0
292 1 5.748258715402555 10.5422711887018 0.7480205075469952 0 0 0
335 1 6.6823173167924645 10.907109810046029 0.9770203550316108 0 0 0
1444 1 6.880428984488702 10.128083935191956 0.19301297719142765 0 0 0
339 1 7.309557883658247 11.307789162285212 0.14806191410011812 0 0 1
7158 1 8.423725999174176 11.145212419622704 0.8152456011553713 0 0 1
214 1 7.841092099092613 10.40234317182724 0.3915977593141788 0 0 0
1360 1 9.738407738843284 10.941359852774314 0.7930310618169507 0 0 0
792 1 8.846329317000261 10.224222644564769 0.8531960460607763 0 0 0
302 1 9.554443043025955 10.130940320839333 0.02417568340623386 0 0 0
309 1 10.670370576446397 10.159477018686184 0.45098536246376775 0 0 0
844 1 10.850475605108418 11.103231279272459 0.9473232849715639 0 0 0
306 1 12.598145632323995 11.057099805124935 1.0621137275245502 0 0 0
308 1 11.652088402723534 10.492031075569514 0.856942150998956 0 0 1
7788 1 12.384249612610136 10.638946915766246 0.2102595514960211 0 0 0
7134 1 13.56032950687317 10.322748422462817 0.8155057517357036 0 0 1
314 1 14.300148548489286 11.003564748100422 0.35397276640193087 0 0 1
398 1 14.446709430512103 10.001015586363414 0.38537835947411736 0 0 0
360 1 15.304179559606794 11.0433445904734 0.6874677506523632 -1 0 0
188 1 15.618351639157474 10.211742013218636 1.263691113239604 0 0 0
358 1 14.573175260864296 10.501803944468163 1.344308340512443 0 0 0
1495 1 15.48511539015093 10.13014860826725 0.16657987931883844 0 0 0
947 1 16.22360660258151 11.057554057104335 1.37475746445581 0 0 0
946 1 16.28677683883668 10.773597116718555 0.4557958975295395 0 0 0
7755 1 16.758737320056742 10.24632194058887 1.2079599020834837 0 0 1
320 1 17.410726261618603 10.110654335640092 0.3694034624569494 0 0 0
910 1 17.317055351670287 11.075908607036178 0.6980392639901719 -1 0 0
1473 1 17.83819226636437 10.284458722852468 1.317094165249364 -1 0 0
242 1 18.91046165804032 10.433220764644947 1.3864148098298694 0 0 0
906 1 19.513540564503845 11.20012815599254 0.9242051147165072 -1 0 0
323 1 19.907857536298078 10.929243961152835 0.017364876071028306 -1 0 0
7760 1 18.8472283263744 11.088932872471274 0.1662530769465885 0 0 0
7184 1 19.532372895723455 10.105779048792995 0.41430102262689966 -1 0 1
1514 1 0.9766672231798383 11.777845056757053 0.4460347269891445 0 0 0
7758 1 0.04608856873565854 12.069903002452305 0.4984741781868787 0 0 1
7191 1 2.0127390004260204 11.99530202625429 0.4366151519278742 0 0 1
6700 1 1.461307429431317 11.921295416152134 1.424892355121559 0 0 1
7195 1 2.386180615165202 12.681147116343414 1.3630483716718604 0 0 1
7852 1 2.730499027391758 11.64967499715842 1.214081819391998 0 0 0
286 1 2.9739593416816854 12.284777828008155 0.3260759732718414 0 0 0
912 1 3.528200391577183 12.232550861782498 1.087018172860458 0 0 0
337 1 5.542343563187844 11.538056439134145 0.8255862579471628 0 0 0
328 1 4.674809843441891 11.952726561351094 0.48657968521060097 0 0 0
790 1 5.027980994739982 12.788496422205476 0.09332603894853395 0 0 0
1001 1 4.7952529428077835 12.498789691241258 1.3588535513995277 0 0 0
922 1 4.326798589786709 11.498123503562285 1.276507559842902 0 0 0
1483 1 6.707501048096393 12.027554764930764 0.488432914311085 0 0 0
2136 1 5.827542711576409 12.52277424621614 1.0272640541891078 0 0 0
920 1 7.5785731530852996 11.490011049240879 1.1026613838827335 0 0 0
7199 1 7.644875787271435 12.340494714081553 0.45235747471513726 0 0 1
924 1 9.636444377641924 12.500541845499924 0.4656940999147486 0 0 0
6637 1 8.636721751565322 12.183323757143778 0.6988150687591865 0 0 1
2067 1 10.232938511549314 11.792455120306577 0.5759720795272834 0 0 0
304 1 11.322064232047381 12.055771730170866 0.9717889385407809 0 0 0
348 1 11.611078601135379 11.494241736800276 0.02705410280163179 0 0 1
887 1 12.337634820358275 12.02327306791342 1.3662864546613647 0 0 0
972 1 11.97852826953616 12.513491145602233 0.27840241524211334 0 0 0
883 1 12.637403874562503 11.671968798318474 0.09233903615172356 0 0 0
1537 1 13.47341615764207 11.517754070659974 0.7891400594520196 0 0 0
856 1 13.970875211276365 12.569341010004566 0.9034240287691784 0 0 0
1540 1 12.942372468819586 12.409381296978852 0.6363181207559852 0 0 0
356 1 14.969193034038527 11.800250518840926 0.17101693006107427 0 0 0
7878 1 15.446245665560077 11.935568774059977 1.4247135495562466 0 0 0
7261 1 15.629917255928907 12.571232944370502 0.036059075059935546 -1 0 1
1504 1 14.450013702536715 11.669085586819032 1.193395244531417 0 0 0
365 1 15.975133208746009 11.784378350015464 0.587940081155452 0 0 0
1025 1 16.762883776940296 12.059265668019668 1.1048688271268072 0 0 0
7831 1 16.62279927520627 12.695753205008591 0.3094490816466695 0 0 1
480 1 15.986373001572575 12.768216520410178 1.1661020225972776 0 0 0
2083 1 17.848354892041208 12.143518315844045 0.788365017424677 -1 0 0
7881 1 18.45965557398838 11.470597471440758 1.1536942614892154 0 0 1
7766 1 19.067263556934847 12.224218945717363 0.8104366888063884 -1 0 1
403 1 0.2957884468260854 12.99202202001797 1.134864810130255 1 0 0
7851 1 0.7757808803802072 13.734016654982602 0.444487891865548 0 0 1
369 1 1.4107881085268303 12.987376079828978 1.2577278993014516 0 0 1
1109 1 1.4276156435221488 13.983861222059737 1.2221964487415937 1 0 0
7927 1 2.198532183507503 13.088739359901794 0.3973732839496495 0 0 1
7847 1 2.8294171705752773 13.910291779837594 0.23809220196788558 0 0 0
989 1 1.7250129425437637 14.264907349976461 0.21157622698623096 0 0 0
950 1 2.474044743193307 13.923100704244101 1.2072897231386521 1 0 0
376 1 3.2112615712172254 13.245680838808273 0.870866669468917 0 0 0
999 1 4.233031588801552 13.070219387299247 0.5892268347188381 0 0 0
332 1 3.9605222756634437 13.873131788699473 0.12239835226368362 0 0 0
373 1 4.38345571565386 13.971637074820315 1.1963020733588268 0 0 0
371 1 5.198820026857702 13.327876401875269 1.0124495062455734 0 0 0
7725 1 6.012778692757949 13.530475239984337 0.3648196267624472 0 0 0
956 1 6.086350561241864 13.700996196665388 1.3607828605394916 0 0 0
7854 1 6.807153590799889 14.26523642337559 0.957587954019626 0 0 1
418 1 6.89972195115654 13.07723062516264 0.8489773729854823 0 0 0
7324 1 7.130650203166265 13.796276430544568 0.0118116324572491 0 0 1
7768 1 7.817589117202176 13.445355499711356 0.7130925242590074 0 0 1
7200 1 8.531604987233846 13.994189829014514 0.26656188407459663 0 0 1
297 1 8.963159583119145 13.161862931963608 0.7262873314299706 0 0 1
7736 1 9.668718182593933 13.891627841484587 0.6055037469649347 0 0 1
1541 1 11.241587505457654 13.236534439875044 0.6198503726981978 0 0 0
7868 1 10.697875759853321 14.146868806265298 0.6075435450243571 0 0 1
1535 1 10.317708042064984 13.270264707491481 1.0660086487280909 0 0 0
1498 1 11.964576921353423 13.76570919511984 0.2884260653399596 0 0 0
935 1 12.127643200568578 13.091792896192034 1.0902283533877388 0 0 0
967 1 11.541011772381363 14.013416454033065 1.247778936250658 0 0 0
1582 1 12.486529389454555 14.239043885738553 1.0939459033277692 0 0 0
2105 1 12.948683531993444 13.456554689509703 0.37949561062652765 0 0 0
1013 1 13.77286172383373 13.6785107042041 0.8189546992703983 0 0 0
435 1 14.953392676588749 12.902608033082322 0.8033684440655935 0 0 0
7876 1 14.913048791496768 14.084035660056616 0.7470019742272453 0 0 0
7793 1 16.816089716901896 13.467212248582793 1.0461583744074425 0 0 0
7337 1 15.86439080901177 13.721866546239749 1.0981878190194594 0 0 1
7828 1 15.926032056579757 13.561523199465574 0.13200286577297052 0 0 1
7294 1 16.915297381098856 13.89525047820654 0.003104949254254308 0 0 1
7921 1 17.590221691654087 14.040962442454356 0.7654329049829408 0 0 1
445 1 17.633172298472108 12.909008428060103 1.3778853088556575 0 0 0
1545 1 18.47214402738749 13.057289090315406 0.9595205633198276 0 0 0
7753 1 17.570253437695772 13.012968184073546 0.3264916411025198 0 0 1
7308 1 18.492026703881137 13.727415276320574 0.2032306472389856 0 0 1
7219 1 19.39579650042237 12.96680809328219 0.27443179603348566 0 0 1
406 1 19.61753798428738 13.91365155854289 0.6813283408345001 -1 0 1
485 1 18.643780138240757 14.18663119658073 1.1184794710460673 0 0 1
483 1 19.397474951766945 13.273520540541536 1.4227742990530279 0 0 1
7920 1 0.8686243114839133 14.720084561059872 0.876039898678609 1 0 1
7924 1 0.30331980674084025 15.592200995217546 0.6125180400150776 1 0 1
488 1 1.3870698042656249 15.606708648934784 1.4171896802396045 0 0 0
7354 1 1.276971327527864 15.280540568062722 0.16783047615985147 0 0 1
1555 1 2.759187581861859 14.963501809718615 0.2591107002081338 0 0 0
1559 1 1.9529570685694824 14.93267142119979 0.9408572187395654 0 0 0
7848 1 3.528779702591974 14.415486381949984 0.7972566203587231 0 0 1
456 1 3.285624431185294 15.568768502910137 0.9469799672914686 0 0 0
954 1 4.312637225401155 14.848074452444177 0.35741920222159634 0 0 0
1006 1 5.498652314934133 14.316878068599738 0.7695631326104069 0 0 0
958 1 4.849486889214624 15.028740789456338 1.146556894903137 0 0 0
962 1 5.605989220020117 15.284037366819065 0.5370874354287225 0 0 0
419 1 6.7068701311654335 15.266791767035423 1.1156810776816168 0 0 0
415 1 6.560047753551333 14.666818276702637 0.036499081938206536 0 0 1
381 1 7.575129615937151 14.539701932036214 0.33494444512249943 0 0 0