LAMMPS data file via write_data, version 7 Feb 2024, timestep = 25000, units = lj

9260 atoms
1 atom types

0 21 xlo xhi
0 21 ylo yhi
0 21 zlo zhi

Masses

1 1

Pair Coeffs # lj/cut

1 1 1

Atoms # atomic

118 1 1.1937649032029334 0.5550100463041214 20.814157283432703 1 0 -1
8640 1 1.1519066492583274 1.1293432936573047 1.1961020385482934 0 0 1
1311 1 0.6399119780245077 1.481647557643732 0.33461122804103505 0 0 0
158 1 0.5071708269621756 0.3466041307774225 0.9156902587821054 1 0 0
693 1 2.2908410623359843 1.156513401182426 0.9037824395165195 0 0 0
533 1 2.2482148473003116 20.746521046479042 0.3365436286446598 0 0 0
690 1 3.4060201825450864 0.49805553835642 20.39838326969952 0 0 -1
8730 1 3.120572215074159 0.4588049318410707 0.5969741324583404 0 0 0
86 1 4.32251997493571 1.040069720757943 0.4199790907269507 0 0 0
52 1 5.359144802920855 0.5380109922230698 20.869632329234292 0 0 0
578 1 4.869721256595793 1.8385324494155764 20.8915624024197 0 0 -1
8647 1 6.0119483442357025 0.636901853683553 0.6112181010269342 0 0 0
657 1 7.95797370626404 20.553301153664236 0.8379258415126308 0 -1 0
8654 1 7.25977534067214 0.01821906350846307 20.950963439837114 0 0 -1
624 1 8.062277952627307 0.6171146059799045 0.4594102074592772 0 0 0
1163 1 9.313011136279469 0.06796419344317202 0.20432684211718175 0 1 0
8660 1 10.159566417897768 0.5919300197178845 1.0650577906434755 0 0 1
13 1 9.806886418901271 20.207978468947157 0.244508814817916 0 -1 0
709 1 9.662722017950768 1.0188913151857208 2.1543628933042265 0 0 0
59 1 10.865484624201528 0.8841869106339902 1.9907000725070432 0 0 0
8750 1 13.377962498366069 0.4193060514637752 1.465633843822447 0 0 1
589 1 11.84164424048162 0.5861862439807196 1.5788337395482772 0 1 0
8051 1 11.62293504638437 1.3378379777335625 0.6893615149049344 0 0 1
1209 1 12.910912314487812 1.209164208672001 0.16126120583888195 0 0 0
675 1 14.34040940918773 1.0068840692929308 1.8378687146071808 0 0 0
1212 1 13.738673700902849 20.92002567918956 0.4051343884984847 0 -1 0
8627 1 13.78549819859158 1.4802320761986492 20.730657069920486 0 0 0
631 1 14.721737414201794 1.3016636596540543 0.9394642861692829 0 0 0
29 1 15.307867468442584 0.4107812910535993 0.7685114683287022 0 0 0
8667 1 15.958462696815646 20.962121775512045 1.386323701065322 0 -1 0
9248 1 16.267328663028124 0.5803935492595053 0.5908770403596033 0 1 0
117 1 15.733368600026834 1.1102089396141381 1.4354346868559988 0 0 0
65 1 15.744399734542391 1.4055540669454258 0.399263330427521 0 0 0
557 1 17.420062536721062 0.15015098113039976 0.9099524522534697 0 1 1
8669 1 17.229097103552604 0.39957279260112677 0.009448304649996686 0 0 0
560 1 18.482567875573746 0.10360559241317538 0.6834375229283554 0 1 1
681 1 19.535092894758115 0.5765589737777472 0.3975698734899638 0 0 0
1803 1 18.69236984108069 0.9066204371425599 1.339603245414754 0 1 0
605 1 19.232413926143977 1.5438780737740605 0.6977087428685194 0 1 0
1265 1 19.31556918707863 20.70968319139792 1.3368917221575796 0 -1 0
1918 1 20.48155524392777 0.09832732948386093 0.4508317835462348 0 0 0
1308 1 20.323792654819012 20.868174896041797 1.4253978823182558 0 -1 0
119 1 19.88071987898937 0.8606275563452334 1.2725789112348507 0 0 0
8806 1 20.800747747065877 1.0281814747304125 0.7818656273831708 0 0 0
8115 1 1.470358023288657 2.04637320571132 0.9506470963233937 0 0 1
684 1 0.3011474178399328 1.6865830614586026 1.3589771324429083 1 0 0
729 1 0.40178223966707194 2.5575915706554495 0.546605929694888 1 0 0
8076 1 2.6426833190644237 1.8332988873017635 0.2135618804222457 0 0 1
8733 1 1.6870062238473058 1.4515808816009268 0.09442283251375727 0 0 0
1279 1 3.351606312926808 1.4366213267723096 0.9229591728008172 0 0 0
648 1 3.6165218191364823 2.3804339358905318 0.44769997966208536 0 0 0
9226 1 3.5993246085398454 1.473019684587761 20.927431103578893 0 0 -1
741 1 4.767969587100041 2.659736385125907 0.5544806695413179 0 0 0
10 1 4.2915822935330885 1.8506337662132792 1.1398124882296732 0 0 0
656 1 5.821695567474381 1.3958154365916482 20.91413163084866 0 0 -1
8740 1 5.730096083310964 2.3928209762307047 0.20341000037980408 0 0 1
88 1 6.639648678664136 1.6226662804212666 0.7655834014972147 0 0 0
1321 1 5.485462874502731 1.6300200930215836 0.9479202189287114 0 0 0
8164 1 7.497994730510924 1.5434063773722575 0.2421530275932753 0 0 1
621 1 7.550295337198544 2.5390327260026453 20.901827043893494 0 0 -1
660 1 8.766755806432315 1.4212830110489192 0.5336308814396491 0 0 0
8700 1 8.894866364381262 0.663517100304807 1.2130596149052097 0 0 1
1160 1 8.684179600899093 2.4630802554273976 0.25477236147381727 0 1 0
625 1 9.762077124023715 1.9666957289327995 0.8803336697763511 0 0 0
1864 1 10.666688154612496 1.4461027873034022 1.013009294953211 0 0 0
669 1 12.528152706586743 1.9411730639270728 0.6269624556759498 0 0 0
8055 1 11.589527293875367 1.5682134402351897 1.6822271956137393 0 0 1
61 1 12.44637830735874 2.3738345019228397 1.583867708577505 0 0 0
8139 1 12.50687723095255 3.4695664553754644 20.488084835754986 0 0 0
713 1 13.799311910517815 0.9787664391976008 0.7623499497456173 0 0 0
20 1 14.04150058725784 1.997511846826078 0.8122170229187995 0 0 1
1215 1 15.133691989342951 2.257301990536283 0.9373601031570674 0 1 0
1913 1 16.219371158440524 2.5478203214759896 1.1001557516389946 0 0 0
68 1 16.837182460981822 1.5564020726570356 0.6665740891469524 0 0 0
1184 1 17.41321527020825 2.5265716287434308 1.0294698341360389 0 1 0
8676 1 18.226329354830217 1.2012931444974777 0.39609420981611554 0 0 0
109 1 19.397756777792836 2.740827550576545 0.3815895697277481 0 0 0
35 1 19.31597319322769 2.3095670673853204 1.4458851872455287 0 0 0
8762 1 18.36493122322336 2.1131019364847146 0.9575310269195186 0 0 0
8110 1 20.166983001992595 2.0062520774855663 0.6386629997896507 0 0 0
1307 1 20.260022752335615 1.7267149534072925 1.726687701096145 0 0 0
686 1 20.963298848931842 3.6676054006218544 0.6077155421867678 0 0 0
8038 1 0.1196403365072698 4.449590733181528 20.944071164743757 0 0 0
651 1 2.487126888917126 2.394994871892093 0.9687788699295794 0 0 0
8852 1 2.60279815799711 4.073130807104208 0.5334308406440833 0 0 0
8686 1 1.095031974347341 3.3045523490762427 0.7213893074292637 0 0 1
8738 1 2.3070276883751566 3.3051256085439498 1.1352685093094248 0 0 1
8118 1 2.9196105326622077 3.1093089714107776 0.21185112838643771 0 0 1
1401 1 3.5506538675883803 3.210124284899891 1.1129729047011934 0 0 0
742 1 5.275139947350205 3.514835730537239 0.0075871459030168705 0 0 0
750 1 7.360569982773384 3.5379186745059883 20.91066079474409 0 0 -1
8782 1 6.3296801998295615 3.337895281162375 0.30580680295522344 0 0 1
8783 1 6.011069798705864 2.8404137693289346 1.1400388128688304 0 0 1
94 1 7.888558695339878 2.168176396757914 0.8872523706660068 0 0 0
8746 1 7.868588459508655 4.206742458239729 0.7485509041113406 0 0 1
218 1 8.371387333903211 4.937143823145821 0.23994621214088319 0 0 0
8745 1 8.263366928175973 3.2781217229420587 20.54381558414482 0 0 0
8655 1 8.667060303923941 3.8604757893913515 0.3899291333104857 0 0 1
8744 1 7.968221535729921 3.2001759731278288 0.6589859744332127 0 0 0
707 1 9.374306872791074 2.9966852548672205 1.0511510964241697 0 0 0
8614 1 11.263996563717267 2.3360595913546223 1.076735352166962 0 1 1
661 1 10.308592957146129 2.725846344427551 0.5284023385958366 0 0 0
668 1 11.924680325450913 3.217342353517172 1.1375471163239845 0 0 0
8792 1 12.939778808993157 3.583677981133546 1.3925175482195338 0 0 0
1291 1 11.289120726494879 3.2970371077527574 0.3643855725953488 0 0 0
104 1 13.579561494726981 2.791793487023205 20.941099692524205 0 0 -1
8793 1 12.847392615596355 3.051450679059652 0.4967407304652923 0 0 0
1331 1 12.924160332114578 4.5241077839038875 0.5485310217510905 0 0 0
674 1 13.99194158417937 4.582270009143293 0.508814617496706 0 0 0
721 1 15.512265031327809 3.241416941251993 0.8794169729731999 0 0 0
757 1 14.621695390481076 4.041819275389094 1.0608881780396253 0 0 0
755 1 15.47349049025946 4.39449884402017 1.3828062695292611 0 0 0
8665 1 14.473990398629802 3.0307320539101137 1.2864219581528715 0 0 1
672 1 16.379329425658895 3.673025450981536 1.3477004761938878 0 0 0
63 1 16.379620730047616 3.2455773102575285 0.25120117699741773 0 0 0
8763 1 15.711625957000347 4.144395837348523 0.3954764102093275 0 0 1
777 1 17.518961521616593 3.468269751241495 1.5219188757655364 -1 0 0
770 1 16.963261175960724 4.151606813393113 0.6961448038806151 0 0 0
8685 1 17.403420227442552 3.2957660835815243 0.4042164053089667 -1 0 0
1424 1 18.32804544300941 3.1499869122404656 0.9169959610454681 0 0 0
734 1 20.40454478406736 4.652625267026055 0.6078188378771993 -1 0 0
817 1 20.429768790610204 2.7858382388541827 1.1959766595128016 0 0 0
768 1 19.94650393124042 3.6964056217170014 0.5030944706472563 0 0 0
8731 1 0.9164481635507641 4.3731215752439425 0.6762589574345512 0 0 0
8817 1 0.5239737866690366 5.305713647678317 0.27589284096157596 0 0 0
253 1 1.332687713997927 5.616345420428629 1.0344746336403583 0 0 0
205 1 0.07674513870676043 5.089814993940506 1.1842471046672944 0 0 0
780 1 3.2879699680698353 4.997564299178701 0.9775305454796936 0 0 0
44 1 3.222311856280364 5.012366385629601 20.86360816228104 0 0 -1
213 1 1.4458050201209676 3.9656011188632725 20.98312314962324 0 0 -1
689 1 3.6651458883011205 4.115104243598596 0.3376349837445509 1 0 0
1933 1 4.165149158475759 5.403699028845527 0.37487140741008484 0 0 0
696 1 4.485955503186469 3.5953372092226696 0.681715821974077 0 0 0
80 1 5.100355980710618 5.441640717899081 0.788168735742703 0 0 0
8784 1 5.718703320773701 4.104852577632817 0.7404995864534657 0 0 0
8829 1 6.751853828971499 4.207516868813739 0.35156096853835567 0 0 1
8735 1 6.1563903579873465 5.140491555954947 0.4920321650865933 0 0 0
8737 1 6.134099811217967 6.02853709584766 0.8174260542695376 0 0 1
8739 1 6.7154212950054895 5.00919563828092 20.696498100399605 0 0 0
55 1 7.283879336535301 5.178071426425516 0.5443727751295454 0 0 0
1454 1 7.989591433388003 5.891199840371901 0.5598698802403516 0 0 0
8703 1 9.564013018562934 4.50498013687778 0.1623764525503649 0 0 1
134 1 8.875242777670735 4.753089734442624 1.2062929808466867 0 0 0
7465 1 10.142494262084439 3.749885721475953 0.7714894221692153 0 0 1
142 1 10.118524149137233 4.768784357364399 0.9933364243106747 0 0 0
8833 1 10.543496389390258 5.689875236596803 0.7762460347538832 0 0 1
8132 1 10.727853639351586 4.991248959436422 0.0217101217646416 0 0 1
188 1 12.14102716156208 4.403457842596992 1.2997493211096622 0 0 1
229 1 12.851986019841938 4.340127479673285 2.046028210682585 0 0 1
143 1 12.621567552064707 4.647735899539489 20.496345163298503 0 0 -1
107 1 13.334831158415337 5.354742529110633 0.25409176820524537 0 0 0
805 1 14.52931597380164 4.9589540410301725 1.6506391047019038 0 0 0
198 1 14.266349320242593 5.482324169483588 0.787597646377634 0 0 0
8181 1 15.2150221117115 5.218670450994625 0.5168316076193438 0 0 1
2000 1 16.063247938987903 5.386697541320455 1.1918688541679394 0 0 0
196 1 17.417447950926242 5.060741508246664 1.097599397303255 0 0 0
8185 1 17.883814331602018 4.213360232617135 0.7820571898063544 0 0 1
8765 1 17.262014986235783 4.836709875946038 0.08265756207610397 0 0 1
6950 1 17.858727286232007 4.006164445482139 20.715584124700943 0 0 0
8713 1 18.552234078315923 5.0383818302361085 0.8523230620058042 0 0 1
287 1 19.495414078006412 5.263189184092682 0.5703170763561745 -1 0 0
77 1 18.254924956628745 5.000323940994242 20.753545821049602 0 0 -1
1438 1 19.36390660105084 4.352399476612088 1.0858681754929127 -1 0 0
781 1 20.547138559014066 5.267737611899541 20.77588178059396 0 0 -1
293 1 20.505867495545672 5.807590376167082 0.7831447773797562 -1 0 0
819 1 0.5271092512691111 6.1779978561413325 0.8644107750665183 0 0 0
864 1 1.4080073409265068 5.562215106706995 20.950153022935453 0 0 -1
8935 1 1.9190356086072289 4.964030477818215 0.7010916543089115 0 0 1
1442 1 2.392321467699519 5.681775690728912 0.22383533006646406 0 0 0
827 1 1.9323739582216297 6.409618029111929 0.7719199009191742 0 0 0
81 1 4.178169578160515 6.612473807938296 0.03782190252900081 0 0 0
862 1 2.8605461814173023 6.600734296300388 0.08054325255658931 0 0 0
782 1 3.265403631950736 5.970502708321134 0.7372610180897577 0 0 0
173 1 4.347730752853424 6.185170283160176 1.0389074841345034 0 0 0
1535 1 3.9450029386980083 7.149095537561701 1.176405302839223 0 0 0
744 1 5.267402116675551 6.434071280356232 0.5303756119708379 0 0 0
8774 1 4.958867893324082 7.237659667733556 0.12932303273599904 0 0 1
131 1 5.386383984372661 6.202339412638482 1.6152486945320954 0 0 0
82 1 6.894978930292628 6.824664819886617 1.1252432460327062 0 0 0
306 1 6.78412650742177 7.72809708887317 0.5140169596237848 0 0 1
91 1 7.600192947731709 6.869113816178785 0.2382408248049629 0 0 0
137 1 7.2812567440953915 5.806134000123105 1.3172603461727892 0 0 0
8742 1 8.118473815655634 7.709838954099422 20.607234902340448 0 0 0
792 1 8.578647746982316 6.66361871637528 0.4967578583701958 0 0 0
8163 1 9.70836850550836 6.476807725916354 0.5901610375213482 0 0 1
8210 1 9.32063675731052 5.423443513049913 0.3833989135461242 0 0 1
7595 1 10.678796093315938 6.67603787023314 0.3229060401412372 0 0 1
801 1 9.69521384409428 5.572929196700915 1.4622461594109104 0 0 0
8168 1 10.09547463374329 5.761487417385846 20.69027747896302 0 0 0
187 1 12.747603253070757 6.317786624028276 0.6735149754680402 0 0 0
1375 1 11.888934213270582 4.887768158081505 0.2856944378718368 0 0 0
190 1 12.51979071572677 5.381405840126416 1.0803657288537802 0 0 0
841 1 13.483094454113049 5.992262792677216 1.2519515475965262 0 0 0
880 1 12.468966469176616 7.094280147949809 2.058069874871418 0 0 0
8759 1 13.713711132699185 6.33304904246916 0.15016657393108104 0 0 1
191 1 15.269896237445463 5.664667131455062 1.8747293526612683 0 0 0
8147 1 15.35970332851289 7.1896404881372025 0.348411096282321 0 0 1
1380 1 15.845096744204437 6.204081166045912 0.3141906852412772 0 0 0
776 1 16.955678901057304 5.741562214171131 0.5055343963707449 0 0 0
197 1 16.17803468833291 6.483526387490405 1.4614797913874027 0 0 0
201 1 15.6899544258125 6.9621334142971865 20.40364232014887 0 0 -1
2088 1 16.358128500358077 7.034886204026249 0.23932716360100445 0 0 0
1395 1 17.926308106064 6.256434683678753 1.0261792366986908 -1 0 0
203 1 18.937980953256147 6.93552547634461 0.29570175524668335 0 0 0
8274 1 19.800707621211874 6.249187228675075 0.2759534387681621 0 0 1
155 1 18.913588153763158 5.882187320626157 1.3623193083781464 0 0 0
818 1 20.769895718911503 6.708690199964201 0.2388520493928627 -1 0 0
1437 1 19.852721071533036 5.893378516835266 2.2435691582010473 -1 0 0
248 1 1.054589068665916 6.972753679881577 0.5318791988062241 0 0 0
8772 1 1.3257767167697532 7.267480759981552 20.51606600816239 0 0 0
858 1 0.3548724410844014 7.521673206773867 20.898459012994692 0 0 -1
247 1 1.345152007222164 8.036807004944066 0.20775111727176065 0 0 0
8978 1 0.830034625341856 8.198960297677385 1.2578086840664524 1 0 0
250 1 1.8357996026511534 8.623241368405399 1.012198834833006 0 0 0
206 1 2.41556363192975 8.349266563496162 0.08644803927625133 0 0 0
8942 1 3.5225169631695885 7.360584956607316 0.22120217099537842 0 0 0
8775 1 4.404029531974228 7.366525216239393 20.074468846348356 0 0 -1
162 1 5.730771577787109 7.350210478643372 0.8054145072529773 0 0 0
8822 1 3.936914091663754 8.130789490387974 1.0273171812246795 0 0 0
7538 1 6.087992976424579 6.781174580956292 0.06370371392993496 0 0 1
181 1 5.93799660071983 8.60775781142921 0.9322775760357146 0 0 0
8866 1 6.442886296714409 7.75068870207495 1.6061444640416964 0 0 1
8867 1 7.595573502675354 8.406200357983673 0.27270273229231956 0 0 1
8831 1 7.449766556434406 7.737041125316118 1.47652088362242 0 0 1
8872 1 7.198200156064421 8.051401004399345 20.404076961332382 0 0 -1
8832 1 9.268836402934394 7.6453838879718665 0.684740741244212 0 0 1
8250 1 8.229651212995902 7.576109769109679 0.597661129325614 0 0 1
8917 1 8.561781409565782 8.484157360470167 0.10045547789724317 0 0 1
223 1 10.253378153466558 7.568735812882333 0.3049646215233084 0 0 0
8870 1 9.98781471525976 8.287938084171593 1.055331414555362 0 0 1
8835 1 12.045186458362563 7.244990238423355 0.9176735980042734 0 0 1
800 1 12.339456584444719 9.054248771525266 0.2867746545621213 0 0 0
8296 1 11.744061455428934 8.318138698115227 0.7034645761750775 0 0 1
1553 1 10.995622565421218 7.5081231340120205 0.9662152154028684 0 0 0
8837 1 12.311400543497275 7.76765140702058 20.98168343644858 0 0 0
227 1 13.73184118388234 8.022428840855877 0.6716957023753575 0 0 0
807 1 13.187842511741692 7.240474465124709 1.1800267119509138 0 0 0
1469 1 14.866630497662296 6.250275294867287 0.7041827000819686 0 0 0
243 1 14.25200907506761 7.1967487661432035 0.3726424439424001 0 0 0
239 1 14.709671280962228 8.076163860743533 0.19145494622434517 0 0 0
1519 1 16.84070387376131 7.870235725669272 1.0097650753761962 0 0 0
9012 1 15.63633051741834 7.98189687479636 20.726586183829827 0 0 -1
8271 1 17.339948280924965 7.100496511524707 0.5275754686905215 0 0 1
8424 1 17.626658397637858 8.193751486639353 0.49741827319393206 0 0 1
779 1 18.257711288694704 7.296506412039708 1.0766138404034837 -1 0 0
8889 1 19.271130034140686 8.635904289163264 0.8916422709149492 0 0 0
852 1 18.760775645548563 7.865140600284757 0.42286302670104553 0 0 0
772 1 19.24535949445297 7.4878742932755324 1.2817431106256176 0 0 0
737 1 19.69453579833557 6.507535627487248 1.2864042984543154 -1 0 0
161 1 0.1553043318598731 7.487993738277713 0.9069726604179279 1 0 0
8273 1 19.808969204069914 8.188087173302549 0.21331636950881952 0 0 1
290 1 0.8288222784708582 9.043800925569908 0.5756086004509857 0 0 0
8855 1 20.92853083967025 8.347949814176971 0.28537705787400924 -1 0 1
8310 1 1.8223957994645021 9.161833517215824 0.21062443475129952 1 0 1
256 1 2.666516389496281 9.722420717589257 0.5499786705481111 0 0 0
8239 1 2.893327768057982 8.754540141227064 0.909234692266864 0 0 1
940 1 1.6060101727743548 9.718549185528436 1.2744219383628868 0 0 0
167 1 3.6649753132777145 9.325043994435479 1.3262589449810953 0 0 0
8857 1 3.6257792916520346 8.578768119367721 0.17472474762898124 0 0 1
8243 1 4.405794863195139 8.022054314962642 20.8715652814609 0 0 0
170 1 4.528342291073705 8.887637946608042 0.49647239253158465 0 0 0
8325 1 5.273863552468547 9.459844166216616 0.9660738584046775 0 0 1
8864 1 4.990673935929626 8.047759595358984 0.8135332868446551 0 0 1
8778 1 5.422110715629313 8.268264376736562 20.974005188611905 0 0 -1
8910 1 6.298289790738726 9.551769355789096 0.7981448523501385 0 0 1
8913 1 6.428512888074044 8.836118072914239 20.83938587088187 0 0 0
305 1 7.074320063502813 8.695205819856023 0.997626420636109 0 0 0
265 1 8.05389306306026 8.592975506453522 1.3275528925876512 0 0 0
795 1 7.217089685035877 9.362888174753287 0.24977973647265025 0 0 0
8912 1 8.269716988017816 10.427937666749754 1.0083856572875625 0 0 1
7640 1 9.04678296052551 8.832033220287215 0.844804937769059 0 0 1
8328 1 9.367777280951042 9.933449775884371 0.8548334368794835 0 0 1
8955 1 8.195926586184973 9.360139219471495 0.46298135474399127 0 0 1
8997 1 10.15906942479847 9.427465224091803 0.5002307241989568 0 0 1
186 1 10.78866860519825 8.477613659471082 0.35531744120638503 0 0 0
266 1 10.742437261217104 9.143960690364626 1.32071941814848 0 0 0
8924 1 11.249412695933076 8.358566076216212 1.5893946651310753 0 0 1
8963 1 11.869034474502259 9.312611057059343 1.270539361292965 0 0 0
9004 1 11.331232354376775 9.398269893256208 0.009698990844910327 0 0 1
228 1 12.764421414814628 8.847169820127053 1.6449727910618201 0 0 0
8927 1 12.749448030003224 9.619114939826714 0.9748301950391097 0 0 0
8263 1 14.701837281873791 8.503741277575509 1.1039218120825418 0 0 1
232 1 14.779236243299879 9.223934375344868 1.7980215392629848 0 0 0
8302 1 13.67920167354815 9.035610849053404 0.8374196587654664 0 0 1
845 1 15.689370978743042 9.812236149505127 0.7032707619254912 0 0 0
7782 1 15.805681650011586 9.047038748412158 0.035462837616744125 0 0 1
2167 1 16.632356178066694 8.750952976972306 1.5671795573654859 0 0 0
969 1 15.78266093475647 8.249377541471246 0.7922072049026699 0 0 0
317 1 17.749385688185345 9.852889796325424 0.2129384866756858 0 0 0
8304 1 16.74469126901368 9.202711854680922 0.6249163883428966 0 0 1
2091 1 16.42665598060344 9.83361882613217 1.4048507156282095 0 0 0
294 1 18.431480969690018 8.939516350952973 0.4195410136120182 -1 0 0
286 1 19.28610229556871 9.582014221129484 0.4307387195891178 0 0 0
9015 1 0.34065307621408425 9.815391219356936 0.9193313718561281 1 0 0
8851 1 20.213731001210224 9.092422828565647 0.8505191461232863 -1 0 0
8388 1 20.993177907788027 8.742349350215994 1.5188483418497025 0 0 1
942 1 1.2540409121547016 9.95286661326644 0.40545945385478527 0 0 0
945 1 1.2191700193558497 10.8488407367483 0.07056254018924993 0 0 0
8943 1 1.017819396118498 10.612398399343887 1.1600306493853407 0 0 1
257 1 2.02613406323175 10.639066089622318 0.8488724589633029 0 0 0
334 1 2.91986556463917 10.671690560092102 0.24867340927346734 0 0 0
8991 1 3.694014913755922 10.334798418783599 0.9583327326366428 0 0 1
8441 1 3.9172376272872778 10.682284571708747 0.07615375958384239 0 0 1
7749 1 3.8575214559430715 11.498079248920535 0.9587766268038008 0 0 1
8323 1 4.541542872612466 9.8979483349349 0.425214523832966 0 0 1
298 1 4.6124988197395895 10.867920291715249 1.3368179323301514 0 0 0
8368 1 5.621250303026985 10.303371664896702 0.5660352059478028 0 0 1
8860 1 6.686716037628563 10.46173380649174 0.17284091292416043 0 0 0
7631 1 8.078807950080261 11.275484262788227 1.584927208635907 0 0 1
221 1 7.755643149181911 10.328271474223957 0.18936259717687492 0 0 0
307 1 8.836701029137876 10.448523346700933 0.10312965572036914 0 0 0
8375 1 9.237468877749501 11.289375103852585 0.5621959557884982 0 0 1
9001 1 9.050745945488892 10.810395413495439 1.5945668623510625 0 0 0
8957 1 10.18690179653716 10.615888131435629 0.4674344134508085 0 0 1
344 1 10.12408971627752 11.238394134246237 1.3768405771180903 0 0 0
8920 1 11.042964740817277 10.114974348423797 0.9801618219738047 0 0 1
9043 1 12.117522829179265 10.590805647893676 1.4282305057161524 0 0 1
883 1 13.6427640769925 10.100235350932932 1.042092544707886 0 0 0
2242 1 12.451237577978173 11.601063863456993 1.6479593464388782 0 0 0
230 1 13.48265886887214 9.47204465380883 1.950156157392424 0 0 0
350 1 14.582460222162151 10.03509604492237 0.9955201730779168 0 0 0
9009 1 15.312395176647563 10.766070240630548 0.8021482663041319 0 0 1
1633 1 14.341940795401639 11.07409715093508 1.417280777555754 0 0 0
276 1 16.231611435196278 10.823299018755408 1.073391050642586 0 0 0
1015 1 17.791489310052636 10.706371889408167 0.7550809386077307 0 0 0
320 1 19.001870810537557 10.79147632110769 1.0798580131892168 0 0 0
358 1 18.966183255469225 11.46302340093313 1.8102837984542144 0 0 0
8974 1 19.726134282062084 10.95531050615544 0.314665795611306 0 0 0
894 1 18.39089944466789 9.94078731753654 1.089168071127312 -1 0 0
245 1 20.172274509889846 10.056524898184282 0.28118767827173946 -1 0 0
8939 1 0.2541812962597325 10.32667003000505 0.0748038475380063 0 0 1
329 1 20.16888023120639 10.113536723646735 1.2411343333639933 -1 0 0
321 1 19.926528836177035 11.05716735110364 1.4921856110877678 0 0 0
8903 1 1.1175110900134022 12.401214785470499 0.7373911434187123 0 0 0
8351 1 1.3922635826645795 11.914862549590948 20.821676469140726 0 0 0
8358 1 3.115248227200681 11.942183476221356 0.1815560992965895 0 0 1
982 1 1.764256601207878 11.624645903494995 0.7554694067554124 0 0 0
8479 1 3.687549262035215 12.463633906053758 0.8267952274550595 0 0 1
8395 1 4.203434476173117 11.799897371406816 20.89165751058023 0 0 0
8324 1 5.534877335519951 11.169645645550986 1.1301523099178112 0 0 1
7807 1 4.801742996729862 11.094235632453598 0.3760968446689368 0 0 1
415 1 5.866464296989246 12.101139330639276 0.7622285494250453 0 0 0
8952 1 6.015570556045261 11.944919703605246 20.29382634519939 0 0 0
8909 1 6.253318015362395 11.328790020453088 0.3885552378558649 0 0 0
8953 1 6.599534670258991 12.686107701008858 1.2176614047411343 0 0 1
343 1 6.982168382693587 11.979406952174953 0.24770570885986443 0 0 0
376 1 8.198016845228414 11.423267186574025 0.4133621644402723 0 0 0
1659 1 8.240085531846763 12.81153103732888 0.458606425822222 0 0 0
8908 1 7.326944995286324 11.019543279285427 0.7628917055638625 0 0 0
957 1 7.737177396270602 12.026292482872444 1.0495209590676267 0 0 0
952 1 8.712532062107451 11.883126177956365 1.1760160386167129 0 0 0
9002 1 9.455717013676315 12.99230658769886 20.238864394229843 0 0 0
385 1 10.63889364537612 11.480925451608798 0.5437023779469308 0 0 0
347 1 9.792590336551296 12.0968105064387 1.0536552371212304 0 0 0
431 1 10.856478685659537 12.473267597287494 0.8254609178396273 0 0 0
9079 1 10.47861907688395 12.8186147469888 20.82049048009996 0 0 -1
384 1 11.664702832485796 11.14306873216657 0.6854050297813455 0 0 0
1587 1 11.7614040413358 13.007576779584925 0.5303072562526737 0 0 0
7770 1 12.099807493110742 12.026781774836339 0.6576802115512209 0 0 1
1004 1 13.128593485096406 12.394033685452227 1.4141795267358526 0 0 0
8967 1 12.692464599054876 11.09238512065313 0.6875191955072419 0 0 1
387 1 13.168011664732308 12.00571543635912 0.5199379019647725 0 0 0
8299 1 13.43681644779923 11.47870026452358 1.413872169463846 0 0 1
356 1 15.049643461232906 11.772058018293945 1.084452954379828 0 0 0
2247 1 13.788927442800961 10.979074013210399 0.5736380870680793 0 0 0
8297 1 15.515396415161641 11.069481134154122 1.832476408839678 0 0 1
1017 1 15.716201566587541 11.510338292366859 0.23287141679720527 0 0 0
1054 1 16.21018085580917 11.84249713701721 1.1545723981569413 0 0 0
1598 1 17.1265164053764 11.204579931574203 1.5727236582914526 0 0 0
314 1 18.06444527382617 11.734272604252165 1.119171330219132 0 0 0
9059 1 17.52503481140387 12.335436841066537 0.3493151622364223 -1 0 1
9016 1 18.562113754402976 12.527119774329712 0.5587941157711701 0 0 0
8392 1 19.948134725909966 12.678039330986817 0.5724743291898194 -1 0 0
8936 1 19.29691158150804 11.85963408985463 0.7470196224195226 -1 0 0
363 1 18.67152201220439 12.45650220302314 1.543310307464161 -1 0 0
8384 1 20.70068403386492 10.98837263907488 0.6843980076696861 0 0 1
8314 1 0.050688799689507354 11.712596472935628 1.3533295752970078 0 0 1
406 1 20.078895046924867 12.118693627535771 1.5058462829502846 -1 0 0
404 1 0.05657604018129403 14.087394197512278 1.0887790254792633 0 0 0
365 1 0.9626530036958929 13.497013086328026 0.8604556651134191 0 0 0
8437 1 0.9959933912513137 13.023340334696263 20.915129455131954 0 0 0
1028 1 1.7114096295238352 12.939270349669854 1.4029677061310424 0 0 0
9025 1 1.999908012151094 13.804243464077265 0.7991385968764111 0 0 1
332 1 2.9041920764840783 13.159226936507752 0.460955727975389 0 0 0
497 1 3.1225759238990074 14.032705628422747 0.9167738237457538 0 0 0
9068 1 3.9239015720422703 13.536498907015389 0.5090889944788907 0 0 1
8397 1 4.591697371971385 12.551428968031901 0.35886987424907496 0 0 1
998 1 5.729687192729141 13.264346839065258 0.5430493840695548 0 0 0
1575 1 5.5531941150243975 13.1090935390922 1.6040599101815207 0 0 0
374 1 6.368204091853594 12.663478343781883 20.891797496570167 0 0 0
341 1 6.3848226356535855 13.89684495877092 1.0126649479247867 0 0 0
342 1 7.293784244964394 13.245405957906328 0.5789884763593225 0 0 0
8992 1 6.624932487446151 13.763019352110465 20.93475528821792 0 0 0
339 1 8.270224219364096 13.831504820562072 0.6954538643896606 0 0 0
8401 1 9.199130281039487 13.276933565363032 0.17959648362572134 0 0 1
340 1 10.056351925181273 13.099182780152853 0.9810440157611217 0 0 1
375 1 10.09564708968644 13.782771855306747 20.951058363263876 0 0 -1
1005 1 10.983926325219347 13.607929075077806 0.27438088124162574 0 0 0
378 1 10.492781295969552 13.968095498191603 1.1893131898579063 0 0 0
1010 1 11.486018711700149 13.598373009465993 1.492706900714997 0 0 0
386 1 10.414512839019437 13.327252488703973 1.9336445779289526 0 0 0
1013 1 13.578477293979732 13.484540384357745 1.5058110710973787 0 0 0
1708 1 12.700101181708154 12.96247947189579 0.6340315003451467 0 0 0
1085 1 12.508033387846753 13.908949358137871 0.32890323599119553 0 0 0
439 1 14.259905083146132 13.957927998351389 0.8182321953506566 0 0 0
9132 1 14.1602025695669 12.157513588977835 1.1117103086434375 0 0 1
2251 1 14.802949632062772 12.786644204720613 1.5572992744212484 0 0 0
397 1 16.951096712627496 13.090519619933485 0.5823357246989805 0 0 0
1094 1 15.647115126935297 12.74644369189144 0.9492105285108076 0 0 0
1056 1 16.48674026985734 12.835700913739794 1.5450673838660136 0 0 0
1060 1 17.866586182482852 13.236317219561002 20.94553254476776 0 0 -1
7864 1 17.839528873892053 13.001308003910992 1.07045861806915 0 0 1
446 1 17.062266441283573 13.659753354868846 1.4546222922357699 0 0 0
9058 1 18.255316950699843 13.84507198630598 0.5934721959019158 -1 0 1
1018 1 19.146185060462315 13.28375454060115 0.9372807137522637 0 0 0
8987 1 18.9999660835146 13.137659795942437 20.845935804219607 -1 0 0
9026 1 0.00323100968805079 12.429635990329501 0.7343994903190271 0 0 0
9019 1 20.071930063464574 13.817262961044749 0.9558456579436054 0 0 0
8986 1 20.946123111922365 13.431891182602307 0.39320091232724824 -1 0 1
9064 1 0.30344093528083416 14.971268024245646 1.7310241841658414 0 0 0
1062 1 20.52542573906689 15.095388782155515 1.0446867082201525 0 0 0
981 1 0.30917834964095026 14.773840655772311 0.36947121620967427 0 0 0
8356 1 1.702161224977355 15.197922777094204 0.5724692892859097 0 0 1
8398 1 2.6030767637530197 14.722569875135983 0.26522618351931515 0 0 1
461 1 3.0266106513000772 15.124977749310176 1.120842657735616 0 0 0
9034 1 3.968288464302052 14.769994675360353 0.8760849023579019 0 0 0
373 1 5.178842440534295 14.735620545718108 0.8122563123742835 0 0 0
1084 1 6.443660661058793 14.922531782485152 0.6299427230695702 0 0 0
8950 1 7.306014827509533 14.44504695565552 0.3885820290632189 0 0 0
1079 1 8.509294208363038 15.975447239008695 0.30026103993507 0 0 0
515 1 8.179408400450177 15.006514555210341 0.9326490273075904 0 0 0
9078 1 8.369129763153792 14.807935313562778 20.929931046262844 0 0 -1
470 1 9.350722328967153 14.163783183557777 0.6570092896066845 0 0 0
430 1 9.198800432912751 15.351151358350373 0.7525253289333467 0 0 0