LAMMPS data file via write_data, version 7 Feb 2024, timestep = 25000, units = lj

1727 atoms
1 atom types

0 12 xlo xhi
0 12 ylo yhi
0 12 zlo zhi

Masses

1 1

Pair Coeffs # lj/cut

1 1 1

Atoms # atomic

1567 1 1.1437456722237163 0.3215694468460663 0.6079542068520463 1 0 1
1679 1 11.984973763424524 0.25507776707539714 0.25612067132524646 -1 1 0
175 1 1.686639396262123 11.255098530463586 0.7437545626447022 0 0 0
274 1 0.6436180345889473 1.5441678658453593 0.2333709299877498 1 0 0
1622 1 1.5725220409312828 1.0645011549265315 1.2917763403241138 1 0 0
54 1 11.972617508550009 1.2287690641818803 11.36711693700397 0 0 -1
193 1 2.2577315385330223 0.45971095525752714 0.7286392522055574 0 1 0
199 1 2.5630892954286506 2.1432661836194336 11.903604017915642 0 1 -1
196 1 3.059812635534556 1.193006984391038 0.32981219786785987 0 1 0
257 1 2.5731761739485104 1.399337555950321 1.3552548628740597 0 0 0
211 1 3.6231550696293633 1.3876819963083773 1.1579782008278776 0 1 0
261 1 4.513711345999803 0.7914708211291452 1.2858072354342822 0 0 0
174 1 3.5022324198659565 0.36362308163176854 1.0260088070257016 0 1 0
426 1 5.824754107247196 0.7345057832863534 11.271060260526633 0 1 -1
447 1 6.065679727279542 1.2499837026025047 0.7209155609614006 0 0 0
1257 1 5.554066615517579 0.4708943927795075 0.6014030976306597 0 1 1
649 1 6.305871340893997 0.7075976713487048 1.779191044831984 0 1 0
49 1 6.550370964992841 0.6573283669556067 0.04479127973386603 0 0 0
416 1 7.440539726319676 0.23908239250994953 1.4111404835131265 0 0 0
1560 1 7.799810372479433 0.46014867666757386 0.4486390680281737 0 0 1
432 1 8.050245529654875 1.4202201116108482 1.221499510913958 0 1 0
1532 1 8.985322191741147 0.7737097503068079 1.0163183794220074 0 0 0
21 1 8.843443517931464 11.95881476546982 0.40113799011538714 0 0 0
433 1 10.116880873279472 0.43186775518246956 1.523446261782213 -1 0 0
247 1 9.901121346981549 0.4038038839120463 0.5548897041295487 0 0 0
223 1 10.889715543020664 0.49166183128694324 0.2783478153715037 -1 0 0
29 1 11.551172164947419 1.2163762044430164 0.6180814778399938 0 0 0
434 1 10.728473044736948 11.586273044529046 0.12320586080826411 -1 0 0
23 1 11.08863876746493 0.3841045935250122 1.2041783725993702 0 0 0
33 1 0.5908512256477605 2.5462726744480486 0.4693604728455542 0 0 0
259 1 1.9695793416174698 2.143478012646234 0.9360617681645871 0 0 0
195 1 1.4612695723140907 2.9537447543713142 0.6989638056054595 0 0 0
436 1 3.8866395881734754 1.843739746399263 0.2997599056075188 0 0 0
251 1 3.0465300917261473 2.182724103886286 0.9245820705529172 0 0 0
63 1 3.2740683171756886 3.1376309120572365 1.3313700502086478 0 0 0
1311 1 4.28149086839686 0.911056771970322 0.29753446564693203 0 0 1
11 1 4.736966020130739 1.8198463911150375 0.939924055806209 0 0 0
1554 1 4.99952046741202 3.0739303679647585 1.4457663372705851 0 0 1
1371 1 5.432001923737986 1.2244058269590505 1.5730299234151122 0 0 1
282 1 5.397605868369476 2.493590965416396 0.5517642843881009 0 0 0
1429 1 6.011025829952203 3.335614285722999 0.8563475729417237 0 0 1
15 1 6.203659182976414 1.81456337602764 11.954966648946417 0 0 -1
269 1 6.59748720541258 2.4544158084844803 0.6649345409905854 0 0 0
457 1 7.049375013127653 1.0415244025180488 1.0024556865275072 0 1 0
236 1 7.886392341142538 2.196559601116925 0.5713801258159806 0 0 0
44 1 8.266574955155225 2.5076885047896567 1.5288844437488467 0 0 0
1569 1 8.862262776654507 1.8413710549485411 0.8239986689204117 0 0 1
1559 1 8.328754140377368 1.294771413476499 0.07554132450667088 0 0 1
1344 1 8.256351739887302 2.877606231057252 11.84112062314938 0 0 0
1586 1 10.356426472324834 2.2123650929667726 1.642849642954956 0 0 1
217 1 10.607967098701023 1.646674463784727 0.6939553260959492 -1 0 0
410 1 0.035202622412156735 2.1858672115803808 11.752934592476196 0 1 -1
324 1 11.641598666478043 2.1467848109952206 0.744915036491494 0 0 0
519 1 10.726540733583327 1.2583439882958118 1.6483924761722366 0 0 0
1596 1 0.6398773263876048 3.3696988396606096 1.1748204247983869 1 0 1
1629 1 0.552571339903159 4.710743533288336 1.3453444496910427 0 0 1
1646 1 0.4358236119144477 3.4330770936539543 11.79195441055794 1 0 0
30 1 0.07675511516263746 4.131390507822696 0.5643844658401463 0 0 0
334 1 1.4585954475625162 3.543726509134979 11.741347977686615 0 0 -1
1520 1 2.3874945337396256 3.4840061424116118 0.993064899723784 0 0 1
333 1 1.9950292302931432 5.1913329597608975 0.713823647398144 0 0 0
62 1 1.271975379660362 4.233056415461421 0.5111438125667683 0 0 0
307 1 4.165112683786384 3.802072081493276 1.0041553753091166 0 0 0
99 1 3.133967012479559 4.0226388193287095 0.5727723958615024 0 0 0
1316 1 4.625363836780752 4.6549247068223325 1.2461557014967624 0 0 1
75 1 5.413481202893332 4.041229266012216 1.0226245861481167 0 0 0
288 1 6.045463736971188 4.20245430548658 0.21561589588756533 0 0 0
275 1 5.113192721867353 4.150786734542631 2.0073293749783905 0 0 0
1307 1 6.475392749146866 4.480633432801268 1.0058783257924295 0 0 1
563 1 7.114659113190571 3.343990899011215 1.5300700463864483 0 0 0
102 1 6.936131087046373 3.6291447687003178 0.5168528082912639 0 0 0
1349 1 7.863611915129829 3.2135789457230697 0.7019273283210575 0 0 1
265 1 8.58857783717065 3.8558438237518327 0.2904822954574924 0 0 0
1587 1 7.232339782542302 2.775320312299149 11.983958042947265 0 0 -1
1614 1 9.914371484984326 3.230998038471102 0.7813534869574104 0 0 1
569 1 10.26390143481863 5.032414903115465 0.9223420269132391 0 0 0
74 1 9.732913705442328 4.065658844699828 0.3528987491414336 0 0 0
268 1 8.873307125086132 2.9352412205808256 0.7978115256873126 0 0 0
1341 1 10.50485683522028 3.372669730496974 11.923517662668754 0 0 0
226 1 11.635805276993176 3.1203891582272 0.49519153141486605 -1 0 0
1593 1 10.903517291170557 2.4278014847507623 0.12080473674530257 -1 0 1
1619 1 10.683675489340269 3.963565723982524 0.7786560411146697 0 0 0
135 1 0.47594617881330464 6.384164092552865 1.542011303716739 1 0 0
1412 1 1.1807145355975817 5.560238929325021 1.2725822946716634 0 0 1
57 1 1.283853406144859 5.2229867441300675 0.11060519573494046 0 0 0
1391 1 2.85122746870129 6.352337473148484 0.003654021944792755 0 0 1
361 1 1.639220236568195 6.121366213411778 0.5778667085880782 0 0 0
286 1 3.7534798096197903 5.123809492059169 1.2988955557029151 0 0 0
32 1 2.9771958510316443 5.097856669265467 0.2771955357891454 0 0 0
285 1 4.500221347757037 5.627015278452782 0.7236850463742561 0 0 0
509 1 3.684485647407691 6.371813023297968 0.9706731143829953 0 0 0
745 1 2.7544864309628867 5.720117791223137 1.0671953189032164 0 0 0
560 1 6.236498199412753 5.210368930153673 0.176803250135899 0 0 0
71 1 5.565371271333055 5.019909533557887 0.9623982725508706 0 0 0
124 1 5.430536070853405 5.980235503614486 1.061563311998169 0 0 0
97 1 5.203340979401886 5.328555510632801 11.996185746830136 0 0 0
753 1 7.271147019642138 5.0278870793581305 1.0870477770850524 0 0 0
1555 1 6.921240959387145 5.288815444378479 11.425581653938444 0 0 0
565 1 6.09009329669811 4.777175067907265 1.8839087234350635 0 0 0
131 1 8.159095963896688 4.844513959057603 0.47999781522551055 0 0 0
775 1 7.834754083960172 4.0988125100517445 1.2271276380091554 0 0 0
1376 1 9.030285309411754 5.4882713134307535 0.7336780445595548 0 0 1
546 1 8.122739013862605 4.812132927608187 1.9592972420598755 0 0 0
344 1 9.832785980608827 6.040901301030134 1.084317502405367 0 0 0
1640 1 10.577744864175525 6.246125719223689 0.5172677916433263 0 0 0
51 1 11.16080187861168 5.398772454808331 0.5215389528825087 0 0 0
132 1 11.518409402203314 4.735270635246054 1.1761908037491984 0 0 0
86 1 10.54141711886329 5.639320556526146 11.52860538377312 -1 0 -1
1382 1 0.364407347228209 5.097023474105374 0.3541376610747684 0 0 1
112 1 11.790511075181689 5.859481458607964 11.848961663012032 0 0 -1
321 1 10.793783659362033 5.757424593337034 1.4669787484622872 0 0 0
167 1 0.7958377351949707 7.552411561458639 11.949521255447369 0 0 -1
137 1 1.3687627625019088 7.116925745699307 0.8105003144649434 0 0 0
190 1 0.6271644956620762 6.202240409687364 0.5225670890658182 0 0 0
1461 1 11.943062338572535 7.011839009241336 0.03490354417566554 0 0 1
336 1 1.861124204928902 6.963021810588731 11.936232295844626 0 0 -1
93 1 1.6207805257445467 6.497889844432042 1.5940561152636026 0 0 0
1630 1 2.538942393099657 7.916729967638766 1.1016135688446613 0 0 1
1362 1 2.362549856957787 6.8545995518162846 0.8452159558946368 0 0 1
1582 1 3.4307742129181573 7.454152068513469 0.9811007415282812 0 0 1
1606 1 4.734883772702156 6.761694054572549 0.7265310879244979 0 0 1
1609 1 6.046753141104203 6.5158962013778 1.7784836662858485 0 0 1
106 1 5.454301413370728 6.345229415252354 11.975482589837354 0 0 0
534 1 6.331031386144613 6.174478371115456 0.41138311103756703 0 0 0
1591 1 8.2062118252929 5.727483844333572 1.3110635900490626 0 0 0
260 1 5.821576974143586 6.985447589557247 0.8556662133635126 0 0 0
1419 1 7.421391356987555 6.938097241351518 0.2806968685487351 0 0 1
574 1 8.376339946325317 6.363440232093026 0.5141761785038338 0 0 0
1635 1 9.377251070700979 6.395192119015591 0.25972097331049915 0 0 1
1696 1 9.062886219640559 7.46246860655906 1.2616882260378797 -1 0 0
1623 1 10.016671900937666 7.085002443488314 0.9087309205522484 0 0 1
1584 1 8.96011404996383 6.503082556005933 1.415284657573597 0 0 1
1641 1 8.124161990486588 7.67226096985069 0.19690094624588625 0 0 1
350 1 11.612228010588856 6.485184497625624 0.8468415856738312 0 0 0
1396 1 10.078486884969601 7.137088960840054 11.903427698403599 0 0 0
145 1 10.983580865345079 6.890647368935938 1.5827985196164793 -1 0 0
389 1 0.751223061035018 8.349859980141444 0.6916619315870484 0 0 0
1415 1 0.7669883446488452 8.58069514527347 11.707855570527963 0 0 0
96 1 1.4254845679844559 7.9781983766863265 1.3876148400444512 0 0 1
1652 1 1.7265031739084629 7.986030110779046 0.09968514306586979 0 0 1
1438 1 2.1259527196227084 8.828852571179338 1.4355764674971974 0 0 1
396 1 3.202665206567254 8.658104171420225 1.34817317306147 0 0 0
314 1 4.407688887116288 7.66623273755081 0.5033852188410153 0 0 0
142 1 3.5940327595861272 8.215891558824948 0.34023729763515276 0 0 0
148 1 4.898789292961733 8.451383644938351 0.14756796963146587 0 0 0
154 1 4.23488870298966 8.891656359103944 0.7893134957901907 0 0 0
1654 1 5.458278278712715 7.504655163922215 0.1047016659591232 0 0 1
564 1 5.359789041938328 8.164603499355078 2.2582436533752768 0 0 0
109 1 6.042484993770516 8.046338265056301 1.0495613719110808 0 0 0
369 1 6.717154171004457 8.923358058330264 0.9485102892737042 0 0 0
1664 1 6.798788814393857 6.964487414630665 1.0877340108195475 0 0 0
1666 1 6.976359547220389 8.754372707094996 11.966288118764048 0 0 0
103 1 7.095876984929376 7.840668794959349 0.589316148072065 0 0 0
316 1 8.30280241795562 7.9550658007083195 1.2764414825814485 0 0 0
431 1 7.811198540834648 8.742981498865163 0.6784564026586457 0 0 0
402 1 7.960113317740937 8.534297513127441 11.607997357100826 0 0 -1
621 1 9.426364461726878 8.458616360273462 1.2226889348291108 0 0 0
373 1 9.998159244614381 9.065239019385025 0.6157018873672152 0 0 0
322 1 10.39323225477118 7.8832395791559104 1.608025420103262 0 0 0
406 1 10.131169461165262 7.99625185524877 0.4887055111698835 0 0 0
139 1 10.766951376262297 8.733097898926005 1.6991077597296091 -1 0 0
379 1 11.901049738992917 8.068863687308534 0.39964902308618255 -1 0 0
2 1 0.1064219596056906 9.041926260483148 1.1119771901003928 0 -1 0
1458 1 11.0231531340291 8.592012604698368 0.7539417592140423 0 0 1
604 1 0.39113540942084263 10.04121722719146 1.6589699074856277 0 0 0
1289 1 1.5755350009910696 9.03682429817877 0.5441711607966786 1 0 1
422 1 1.0158487799253084 9.110905295237481 1.4311377328244506 0 0 0
382 1 1.5232916428257894 10.111124225047723 0.7244320182702383 0 0 0
169 1 0.630940498156585 10.4603427960794 0.06276707841786178 0 0 0
143 1 3.4650998684829113 9.459515233592905 0.410476973895768 0 0 0
631 1 2.506222278469234 9.734242306413977 1.1128526949741577 0 0 0
1476 1 4.4181011143015265 9.331968011159617 11.817828155521461 0 -1 0
8 1 3.389257950553249 10.573661564128546 0.25110873303308423 0 -1 0
178 1 4.448806961502538 9.987101090246465 0.6339293040834212 0 0 0
418 1 5.685090073603849 9.081039156096837 1.599605997212361 0 0 0
825 1 4.965793813499966 8.465845265094037 1.1925814944212492 0 0 0
370 1 5.326842753846571 9.834940315628558 11.67931660088853 0 0 -1
176 1 5.419014168221679 10.282485256049352 0.9327578399579851 0 0 0
185 1 5.32735662145402 9.339268107144783 0.4909772452755184 0 0 0
442 1 6.212919164901154 9.962340229336672 0.3427383687400813 0 -1 0
831 1 7.214045434995232 9.599705874246723 0.3159277910088716 0 0 0
365 1 6.353416093836292 9.810360858468286 1.3300427959837142 0 0 0
829 1 8.139219602427435 10.096209109645066 0.8884840785761263 0 0 0
346 1 8.765656390974348 8.64983005182769 0.44189326850725535 0 0 0
189 1 8.332065721217006 10.672060359826519 11.796051393215132 -1 -1 -1
541 1 8.55094584142037 9.111104381791906 1.3411340705470933 0 0 0
248 1 9.095554229874217 9.63028775380337 0.6020127415682638 0 0 0
430 1 9.906392899192134 9.513922028728937 1.5280088102787082 0 -1 0
1695 1 10.823424954390946 9.621611552226186 0.2814712888428259 0 0 0
188 1 10.291680582004323 10.44236306445073 1.4046215344848527 0 0 0
600 1 9.202495295687767 10.298885943141565 1.4841733037746339 0 0 0
191 1 11.135458635704863 9.542213198289117 1.2546206334924164 -1 0 0
1704 1 0.5478558791921382 10.726087469149546 1.00133616780058 0 -1 0
5 1 2.7410817571019686 11.595703275274282 0.9988555857704956 0 -1 0
1687 1 2.3933662570604994 10.526425526466936 0.33132810434789006 0 0 1
387 1 1.9509431789458382 11.896338059086634 11.942504264629584 0 -1 -1
1092 1 3.3370771551136262 0.21060977019368934 11.99528902746575 0 0 0
173 1 4.535398385004511 11.996654689542956 0.6037090289179395 0 0 0
1680 1 3.6906706333748276 11.182345967889894 1.1455612392619978 0 0 1
201 1 4.378888792966493 11.011150399462021 0.4024301219700974 0 0 0
413 1 6.102053057395092 11.670429486212948 0.3371472421324446 0 0 0
1713 1 5.248708129745168 11.42904039814095 0.8818621861753055 0 -1 0
420 1 6.218382394629892 10.81790057380558 0.8221938336371889 0 -1 0
266 1 6.339269164580874 11.761872765952303 1.4485385722686739 0 -1 0
419 1 5.7499946770653105 11.028711041184385 1.755690052311643 0 -1 0
45 1 7.155084941275328 11.146147878623704 1.5320820632022623 0 -1 0
837 1 7.021822516803471 11.720717117137315 0.5836391663164812 0 0 0
706 1 7.979695022822063 11.352594000681803 0.4429592280678002 0 -1 0
650 1 7.156704252130961 10.593678799069837 0.6462972949942529 0 0 0
1537 1 8.908691263940394 10.766666358767415 0.6991733565101536 -1 -1 1
836 1 9.93700659887162 10.211621349202401 0.44746136974926165 0 0 0
1565 1 9.750373139966968 11.29200821263173 0.5201958087249645 0 -1 1
1540 1 11.76919427236966 11.225516660332211 0.7352650424164184 -1 -1 1
619 1 11.81897444660706 10.035997391142864 0.6886027691188736 0 0 0
1726 1 10.929929940537043 10.616403579661242 0.5994538774597878 -1 0 1
216 1 11.672014121341618 11.299564580465708 11.731304895339694 0 0 0
656 1 10.718131566839286 11.400032756012155 1.2041353370910275 0 0 0
221 1 0.647865639543005 0.5160143314385605 2.2596147758402845 1 1 0
463 1 11.744963403005281 0.9621773155137342 1.7878895469128724 -1 0 0
622 1 0.45422946607904147 0.8900596942983947 1.0772555134264117 1 1 0
1553 1 2.670097680182536 0.4184470799445856 1.7097400403928102 0 0 1
470 1 1.7122008882636115 0.08893305409585922 3.1445251693397873 0 0 0
197 1 2.7480881787937617 0.30536755909037355 2.7304722168840065 0 0 0
630 1 1.8645320084475057 0.8092476832930083 2.2594099429892256 0 0 0
255 1 2.400834267636094 1.409855247065746 2.977932044911232 0 0 0
502 1 3.1474608256657284 1.1886887912607234 2.329241431862549 0 0 0
716 1 3.054344959823782 0.5508444223226031 4.342349266407879 0 0 0
43 1 4.364659222219689 1.5262337701885922 1.9958073088360295 0 0 0
1333 1 4.889215166083237 0.6568069279345066 2.2557389856308228 0 0 1
902 1 4.93461801869352 0.5553157315870578 3.3185045707502105 0 0 0
264 1 5.138470210897803 1.5383707054831395 2.796550469612175 0 0 0
449 1 5.725629196998252 0.7063340531190452 2.701140055380087 0 0 0
454 1 6.462428973539286 1.5183931454519584 2.7495204004611415 0 1 0
429 1 7.461420708971684 0.8266920450463272 2.919502676078981 0 0 0
452 1 7.199408687035167 1.2570093805508993 1.9436318154097307 0 0 0
1536 1 8.331769765085573 1.125673573436017 3.1684200547003236 0 0 1
405 1 8.135497606360403 0.6312151631988228 2.155065681837907 -1 1 0
397 1 9.221061674496312 0.7772142716099668 2.8689260030329646 0 1 0
240 1 9.782528695786418 1.388770550735717 1.3291531343718759 0 0 0
1564 1 8.934505902347928 1.4684548613202055 1.8602780523487379 0 0 1
680 1 10.056277514360225 11.435997291644387 2.001835795814374 0 -1 0
464 1 11.008375538263628 0.23996057125893813 2.1840149954841577 -1 0 0
482 1 11.878985415821132 11.794539907204442 2.702313527230527 0 -1 0
1517 1 1.0920999665877795 2.74104141838757 1.8195130379658921 0 0 1
814 1 1.7371429132010896 1.9077444659930167 1.8939906834493003 0 1 0
1620 1 0.6119070254812878 1.5537657898586879 2.339537777723537 1 0 1
1648 1 2.5418127002689057 2.517612497242648 2.739795781841789 0 0 1
228 1 1.5408597330546192 3.641503917408052 1.581134280380674 0 0 0
1543 1 2.209231609086261 2.8372315332973015 1.7421475023600625 0 0 0
472 1 1.3942915524120834 2.052287824501608 2.9173538167857576 0 0 0
1519 1 0.7184097639006748 2.757721222145223 2.8417305961879835 0 0 0
237 1 3.0920195967408657 2.196282258713557 1.9370137190823489 0 0 0
1527 1 3.333687052074579 3.0915213424763897 2.3393837068661356 0 0 1
310 1 4.061000217876202 2.5495499045253696 1.6221979025656528 0 0 0
471 1 3.441383457646076 2.031282825531485 2.8794888032672565 0 0 0
1556 1 6.2657356948675265 2.870629774688064 1.799193125956104 0 0 1
303 1 5.398388076581804 2.1966444210124885 1.7846265322676782 0 0 0
69 1 4.3049253322636565 2.4261002371595857 2.540066363664075 0 0 1
487 1 6.366498735609742 1.8134395971396429 1.602298570297857 0 0 0
512 1 6.746087422976644 3.3299108135396174 2.582243519191906 0 0 0
267 1 5.957348680541584 2.3583713748607065 2.609334643575146 0 0 0
515 1 7.011056638779443 2.3293721416659965 2.2869549109701848 0 0 0
320 1 7.273286464971886 2.0280010506147614 1.2551341205041475 0 0 0
77 1 8.046092155000235 1.7407850786325034 2.2172475266892464 0 0 0
1530 1 7.911254672419942 2.7621052413636678 2.4641048210601797 0 0 0
78 1 9.088862589909516 1.7447962087931976 2.965878743599481 0 0 0
1407 1 9.405961339918505 2.436949930107623 1.5973038250394413 0 0 1
46 1 10.268445142962019 3.3388792842827746 1.730744907426402 0 0 0
4 1 8.817211496132698 2.429937251702921 2.3472831584545526 -1 0 0
918 1 9.94243049682994 2.456953545197743 2.596140804798635 0 0 0
484 1 9.986329265563551 1.3672632164446084 2.3923723306943816 0 0 0
485 1 10.951584445553106 2.531997305845294 2.510150868584146 0 0 0
1598 1 1.0078511976296933 1.8631463557334726 1.1652866824176675 0 0 1
323 1 11.169355400453467 1.4113358618448986 2.4867080151229137 -1 0 0
53 1 11.618033139903533 1.8979514633113022 1.680106289270203 0 0 0
64 1 11.510604087515441 3.6943217268796307 1.2941339751653997 -1 0 0
1595 1 0.7048619941368289 3.5319470428800748 2.368253198754181 1 0 1
440 1 11.896197465296568 4.204985177480836 2.23669336841794 -1 0 0
114 1 1.7548007488726092 4.108570692628254 2.5568590212081928 0 0 0
1621 1 11.954609205796844 2.824476779232026 1.9337713294372472 0 0 0
1580 1 2.738358852134377 3.791096331051099 1.8885754254408402 0 0 1
1545 1 1.6084620740416937 3.133684935336045 2.7070535315592545 0 0 0
252 1 2.785438768230613 4.637357824163812 1.4606088441081382 0 0 0
536 1 3.7250932782680035 4.064318227258963 2.842454393364373 0 0 0
539 1 3.6917341762875813 4.261704124716704 1.7534524869261041 0 0 0
535 1 2.6507587590315094 4.652554977361104 2.5581482176638075 0 0 0
279 1 4.484130966668291 4.8971938739706085 3.590298565135014 0 0 0
234 1 4.326604324855039 3.519063371593793 2.1001230177711934 0 0 0
254 1 5.460143091257265 3.2175868573915416 2.383363410964219 0 0 0
284 1 4.274844534162939 4.939320304500806 2.3566220573625865 0 0 0
291 1 5.457074305820494 4.8707989973433055 2.739457729133573 0 0 0
933 1 7.770847748676309 3.8172266792664438 2.3021353987279825 0 0 0
486 1 7.124685285005636 4.153884817291556 3.1318469721404307 0 0 0
1583 1 6.154666982171011 3.806825839438066 1.8148431497969102 0 0 0
79 1 7.026265971261257 4.373349643330159 1.8471204801479457 0 0 0
270 1 8.55356000031941 3.4343505617482504 1.6991238759212561 0 0 0
701 1 8.610270289247877 3.4106217847715565 2.786710424192765 0 0 0
83 1 9.772627625785393 4.103693269336871 1.429788901227694 0 0 0
516 1 8.965152738397192 4.237687243339542 2.071442518710836 0 0 0
372 1 8.86323632181938 4.461089727946792 1.049712514082495 0 0 0
375 1 10.816140529185907 4.459038508710567 1.8406121784765304 0 0 0
781 1 10.106690410250435 4.28929093786407 2.7217234358045688 0 0 0
28 1 10.925327842053957 2.891678159867058 1.154178143917271 -1 0 0
85 1 11.063871785341247 3.534650328824799 2.251803893399051 0 0 0
1383 1 0.8357180226160997 4.609930618441355 2.538317756642028 0 0 1
87 1 0.341623910357601 5.478099125956864 2.2401901363326493 0 0 0
1437 1 1.5259829683980457 4.614572919234684 1.6645089205561319 0 0 1
341 1 2.1921973679281637 5.543522424649822 1.9074681853810147 0 0 0
547 1 1.7576608324359708 5.047441991684039 2.980326319618802 1 0 0
92 1 3.2343067598715205 5.239712552848677 2.169513162787635 0 0 0
117 1 3.40799281374167 6.332738833558723 2.6353141849181796 0 0 0
1599 1 4.040423700311813 5.821706493893214 2.0069056433591927 0 0 0
359 1 5.268419717813325 5.357010464460005 1.8693278379642932 0 0 0
313 1 4.798433945233777 5.778007213002116 2.8367726634564026 0 0 0
771 1 5.948246079327387 5.998994136820697 2.63864413720038 0 0 0
499 1 4.916742289942047 6.374007489395902 1.867439467438997 0 0 0
123 1 6.592011921552386 5.095933782250409 2.684386894060768 0 0 0
295 1 9.083512449228449 5.466837238527057 1.7687506422244104 0 0 0
339 1 8.302258355535027 4.463901281691958 2.9565030157704126 0 0 0
542 1 7.2473738446150175 5.430913625787275 2.0356100839142783 0 0 0
595 1 8.39103607770236 5.6240083100055775 2.7814459546623267 0 0 0
728 1 7.427207391042865 5.181231153668462 3.2000567841073813 0 0 0
356 1 9.306223461795708 6.0782481075829855 2.4838453349558454 -1 0 0
521 1 10.053221473533453 5.107057025092264 2.008688607542427 -1 0 0
495 1 10.525164187945137 6.267328712999017 2.4136798687727863 -1 0 0
548 1 11.355562873680611 5.359401060028388 2.3849168115740293 -1 0 0
278 1 11.588516661499572 6.300120902334905 2.082053972472015 -1 0 0
111 1 0.23780604016402962 7.372755134604118 1.0956985220829323 0 0 0
376 1 11.90608618410848 5.609936198208258 1.272613040972683 0 0 0
108 1 0.5241050451822007 6.445032454122065 2.586019275126043 1 0 0
383 1 1.4303105623377488 6.973431279095309 2.7644729668073187 0 0 0
250 1 2.1886656563343396 6.342350222471949 2.5562535075563684 0 0 0
586 1 1.345945023631988 5.672791260934314 2.3695430555721484 0 0 0
200 1 2.2353785652820157 7.298742777981272 1.8348574372465916 0 0 0
172 1 3.2682341880608905 7.7327117690319165 1.9567720926042653 0 0 0
309 1 4.0011618706959045 6.894031594535441 1.885436901753262 0 0 0
140 1 2.933093941744725 6.570753407830705 1.8097607981376458 0 0 0
335 1 4.544855105975051 6.68927207098161 3.243273311143507 0 0 0
558 1 5.476962751374982 7.049659374833434 2.4918965252620433 0 0 0
127 1 6.985199909703555 6.394807130077992 1.9403240553854038 0 0 0
340 1 6.459165959802189 5.569495999193835 1.3562931978292523 0 0 0
514 1 7.159427305524235 6.073883044823265 2.77790421053796 0 0 0
562 1 6.527813562500625 6.85360888774547 3.1296813318424688 0 0 0
290 1 7.175526241267275 5.989217100847982 0.7819236602639429 0 0 0
1588 1 8.0516389534242 6.440095322964571 2.2252120712467636 0 0 1
575 1 7.7057118611781625 7.00866589518825 3.166926188016679 0 0 0
292 1 9.871456987913144 6.768952493802339 1.9149013338499057 0 0 0
161 1 9.844533665804729 7.764604433965965 2.4465697759124367 0 0 0
754 1 8.923550222169688 7.15035552743322 2.2634789939834055 0 0 0
1054 1 9.755845223390818 6.877050939379361 2.955199736867202 -1 0 0
24 1 11.846046179122697 7.265866998255541 2.032239671308685 0 0 0
407 1 10.77575313837079 7.275854711813167 2.485101940220372 -1 0 0
554 1 0.9687850807753347 7.229205367995876 1.8970729003294917 0 0 0
147 1 1.5124315737933725 8.92610661964865 2.3641888751607976 0 0 0
355 1 0.4870062241333917 8.277746041005207 1.8304296833366813 0 0 0
358 1 1.7065839431136198 7.929359145164246 2.434882502006691 0 0 0
1627 1 2.625039301569056 8.510124933776153 2.3495632366753876 0 0 0
331 1 4.5275520763916415 7.565427592116692 2.413966181531412 0 0 0
394 1 3.3660953773421123 9.101719760541632 2.3164616704635748 0 0 0
179 1 4.1543991016611175 8.234429017358009 1.592273099359124 0 0 0
364 1 4.430397905917418 8.962051013851541 2.2654540034164157 0 0 0
1683 1 5.190598662841561 7.492630291384384 1.4675871359368102 0 0 1
366 1 4.622700474202025 8.565335012216567 3.45139187711025 0 0 0
315 1 6.145245319072903 7.57122509439195 1.8800736381192458 0 0 0
395 1 5.506149810806078 9.14983527667228 2.569307612142125 0 0 0
391 1 6.1187050603190425 7.835030658798347 2.904817959433619 0 0 0
1617 1 7.328674904155546 7.809518469023676 1.5791205014010627 0 0 0
156 1 7.039381457554524 7.259126725812153 2.4495425780449307 0 0 1
593 1 6.514354847301494 8.503521764377705 2.1421415787431095 0 0 0
782 1 7.812908159505401 6.953625513951137 1.295130130855375 0 0 0
155 1 7.413833564724103 8.287473909208902 2.6459151647552526 0 0 0
598 1 7.998702543660198 7.4451800249789315 2.2586697409811203 0 0 0
343 1 9.862288639824216 8.72642101535258 2.2096435229183196 0 0 0
101 1 8.941843427688646 8.264687824915997 2.0979747761785412 0 0 0
652 1 8.71290818400909 6.574989726086379 3.141590365655282 0 0 0
832 1 9.151336264565657 8.68605205228187 2.979425018814871 0 0 0
655 1 11.000051100703658 7.415820832318169 0.7318236149379944 -1 -1 0
360 1 10.595453246856007 8.735645400843891 2.8473468240885182 -1 0 0
187 1 11.47227670592749 7.9889839978475035 1.5251356485056258 0 0 1
572 1 11.309335209576863 8.131886695070344 2.5948715532694133 -1 0 0
412 1 0.5392003941757276 9.309272934889243 2.262180410550965 0 -1 0
224 1 1.7792783368085892 9.878834692087564 2.9181674708684953 0 -1 0
456 1 0.9507140778776689 10.287123501215852 2.5730956205443984 1 -1 0
227 1 2.489090864205287 9.49985113932628 2.1790089984753513 0 -1 0
362 1 3.033570447271186 10.129781050638904 2.6992949790800003 0 0 0
170 1 2.5622856551393625 9.181800879492295 3.1255935904697782 0 0 0
386 1 1.6252900177368192 9.847691124441205 1.6858801770084917 0 0 0
385 1 2.145206089314861 10.682513153854647 2.3512919016412943 0 0 0
302 1 3.498689394126211 9.651540176024518 1.399540390065863 0 0 0
591 1 4.246970148683872 10.052173167623781 2.2779853726005435 0 0 0
642 1 5.946259910117881 9.345053589462871 3.8523397573959994 0 0 0
1581 1 4.795124833372234 9.534081495895986 1.4747410009134396 0 -1 1
636 1 5.502423834349293 9.982380158074996 2.0631546193219483 0 0 0
198 1 5.012739983762049 10.77061330687538 2.7327578295809927 0 -1 0
646 1 7.391708316199357 9.6908013596183 1.3641094807676417 0 0 0
158 1 6.465100434001278 9.457885194924238 2.312961774618882 0 0 0
342 1 7.674127906933861 8.868334865173486 1.8790877524898204 0 0 0
398 1 8.21174223535729 10.963569087269715 1.4061723586601638 0 0 0
348 1 8.254151634825218 10.001943431540836 1.8996917941651394 0 0 0
570 1 9.166601958510409 9.488851875603936 2.15741853833075 0 0 0
298 1 10.660550163309043 9.888710306733364 2.1408883794456868 0 0 0
183 1 8.29415684518736 8.99825168552508 2.614110119728568 0 0 0
1703 1 11.420327600905276 9.250311708443137 2.230487100893633 -1 0 1
378 1 11.479434603917268 10.487095076287293 1.4880884743751026 -1 0 0
679 1 10.623633711516462 10.42247176363405 3.0348397835178305 0 -1 0
654 1 11.678700954279732 10.192424927665007 2.4894985996699215 0 -1 0
1714 1 1.433142494160897 0.005311508716733471 1.547795537696938 0 0 0
242 1 0.4257494934113017 11.927942123036784 1.2644879401865194 1 -1 0
34 1 1.0994323343389736 11.645994954813895 2.4850221506648857 0 -1 0
445 1 2.359170810816566 10.759141964889007 1.3773058034080377 0 -1 0
1712 1 1.2888943472770222 10.806707771807165 1.7560898752200624 0 0 1
19 1 2.1033709976723007 11.686593731601425 2.2833310764712467 0 -1 0
414 1 3.0691471283203913 11.235037197781311 2.8204973825656157 0 -1 0
10 1 4.417017883521357 11.723397190609786 1.539352690024173 0 -1 0
694 1 3.907024429774672 0.4657448607803547 2.104219877621807 0 0 0
584 1 3.277491779436203 10.58753512555422 1.768079485579465 0 0 0
35 1 4.126793570789191 11.121589472470097 2.437323537327724 0 -1 0
438 1 3.3071229100512918 11.685907705315898 1.9303449000264785 0 -1 0
479 1 4.704985509105362 10.681078921902712 1.6597251409930076 0 -1 0
76 1 5.423483048187335 0.21633966301817759 1.5953834919201344 0 0 0
446 1 4.90323797709609 11.680387787268845 2.363880004324301 0 -1 0
205 1 5.902501014023036 11.691360040079957 2.48240767113657 0 0 0
400 1 6.507712592645448 10.460615406073009 2.319592513753537 0 0 0
648 1 6.9208971611319035 11.624537507840408 2.3573360971971713 0 0 0
481 1 6.51453689500195 0.18434934734004363 3.1125480061931214 0 0 0
638 1 7.613574370882605 10.69109407970082 2.3973087867224945 0 -1 0
651 1 7.953076562519333 11.623759607587623 2.195183422338613 0 0 0
860 1 8.382339988700267 11.983926945450024 1.4110515800685042 -1 0 0
160 1 8.792182082231905 10.907901093907949 2.276080289026943 0 0 0
624 1 9.277398988594665 11.43327203588111 1.3545284261720776 0 0 0
623 1 9.218934812227953 0.3530927903596105 2.0074780275691575 0 1 0
708 1 9.472335233030833 11.546567077876684 2.89777315831809 0 -1 0
1685 1 11.604859079377572 11.520112163401588 1.69896154039977 -1 0 0
460 1 10.949698698500194 11.026142767326304 2.299947204256205 -1 -1 0
1266 1 0.3338718684770099 10.992122072117079 2.0829182333177956 1 0 0
681 1 0.9434717136314653 11.14133566597503 4.130470731477653 1 0 0
462 1 0.24523421916244767 0.7747387213258898 3.971600563614053 0 0 0
666 1 1.2107092029557576 0.9896733352037906 3.1914578886964557 0 0 0
272 1 0.06573758666226136 0.9509693794337206 3.0042441342074233 1 0 0