LAMMPS data file via write_data, version 7 Feb 2024, timestep = 25000, units = lj

2196 atoms
1 atom types

0 13 xlo xhi
0 13 ylo yhi
0 13 zlo zhi

Masses

1 1

Pair Coeffs # lj/cut

1 1 1

Atoms # atomic

1712 1 0.6961235242747074 0.7989007711958988 0.8286485823836042 0 0 1
1143 1 1.5222084603940573 1.0191929575906196 1.3818855591662826 0 1 0
692 1 2.46013138463118 0.7663709483711894 0.7201815963914192 0 0 0
715 1 3.9505346354367448 0.7777858364781866 0.8991349438406294 0 1 0
23 1 3.3686947637461855 0.07647202768899618 0.3785415407506837 0 0 0
232 1 5.577887011792449 0.8755016805979315 0.5619050182592563 0 0 0
471 1 4.641334853362091 0.6195083517746607 0.08522261866262022 0 1 0
260 1 4.873280367065876 0.3618831702726813 1.1177250902703362 0 0 0
454 1 5.993507309555437 1.185477068349064 1.4288976691368267 0 1 0
61 1 6.604426485355433 0.7513383106712889 0.676387653162782 0 0 0
11 1 7.030428332848402 0.16442123555402136 1.3208777851177944 0 0 0
1971 1 5.889653178886095 0.07117860696873654 1.0767057227026164 0 0 1
34 1 8.19196448672399 0.9523708777581286 0.09356434787975552 0 0 0
2194 1 7.996134937042536 0.16172248319465365 0.810376167372299 0 0 1
263 1 7.586228290948251 1.1445634169996046 0.9176690497540763 0 0 0
40 1 8.588771138504471 0.8214246551252428 1.2290701782753337 0 0 0
235 1 9.375718800075168 0.17194660424454206 1.3446485852430492 0 1 0
2183 1 9.280434278149627 0.9137467700880472 0.26671679373475343 0 0 1
2055 1 9.790458557727966 1.153968921903459 1.407122843238128 0 0 0
300 1 9.9555186172192 0.022250948485876342 0.3425010215517919 0 0 0
1998 1 10.385283048852248 1.1678134662694302 0.37662919715869486 0 0 1
247 1 10.663398004275036 0.38529870149098483 1.171627476798646 -1 0 0
16 1 11.33638105925106 1.379800908541859 1.0511551699634643 0 0 0
514 1 11.07668150085877 0.5282730797028322 0.004976905545579058 0 0 0
302 1 12.570410766118558 1.2491692121303768 0.8650377581674409 0 0 0
26 1 11.883569454850777 0.1748588498065081 0.6317959004053797 -1 0 0
245 1 12.678424880033466 0.2648782055805395 1.325215856611234 0 0 0
2 1 12.79821677342248 0.5132197690555752 0.11757631362876947 -1 0 0
491 1 0.4320050131788188 1.6825600556066878 0.36735506502626275 0 0 0
110 1 0.33165372058468 2.6926112653813346 0.6760388144374158 0 0 0
277 1 1.2317008282023099 2.104715918573464 0.994157898533878 0 0 0
1787 1 0.28304187921442164 1.7636221602157196 1.4266945251528798 1 0 1
52 1 1.1298823481658422 2.3284775506644055 0.00991096532095348 0 0 0
3 1 2.161782481789158 1.6610056133277047 0.0941444467462651 0 0 0
92 1 2.35563991082116 2.178397217473281 0.9773656774786623 0 0 0
29 1 3.0771427725995197 1.481875023340471 0.9608147550412027 0 0 1
79 1 3.9318963339500006 1.9400533849481678 0.49741477300955994 0 0 0
2010 1 3.3296477095646204 2.604580668585475 1.003027640290528 0 0 1
261 1 4.841990303651206 1.4718124527141065 1.0332428150286408 0 0 0
554 1 4.8667171978559844 2.563348005565638 0.7903735848246769 0 0 0
289 1 5.662804900334206 1.8863388961811995 0.565569376580314 0 0 0
7 1 6.6223104924295955 1.7677557710448113 0.8683501168785004 0 0 0
266 1 6.734848206494787 2.399460531609493 0.11554066021649559 0 0 0
2070 1 6.732246286017756 2.7505871497261563 1.2319396762374968 0 0 0
69 1 8.522241986426673 1.8795841877395003 0.24264227650737538 0 0 0
258 1 7.696846993854387 2.2254023116558623 0.8021258561786803 0 0 0
1810 1 9.458983970101452 1.9337449281228447 0.8198326391799086 0 0 0
375 1 8.72339428649069 2.6187964382032796 0.9747620582597403 0 0 0
66 1 9.795653651298966 2.843463405769884 1.196037628060559 0 0 1
18 1 10.481513040805932 2.0171003000988543 0.9441090271496115 0 0 1
2004 1 11.535076985485022 2.751945338463663 0.25567432938221846 0 0 1
481 1 11.702228029469493 2.8107298701869743 1.356334651406203 0 0 0
485 1 12.300221702067264 2.291962531272675 0.5912410572502449 0 0 0
571 1 0.08957894278079857 3.634905704377645 0.7400108613858886 1 0 0
82 1 1.2302220626105442 4.061793644937499 0.6849590001612961 0 0 0
56 1 1.5624688442361339 3.0258186490349663 0.6011988716120356 0 0 0
27 1 2.6345029032145058 3.2317786966276527 0.530194514070928 0 0 1
2038 1 1.9820446600173711 3.7026888745604176 1.2413121734318449 0 0 0
116 1 3.210428770230215 3.7514380639300864 1.2711703889960948 0 0 0
254 1 4.137878997936251 3.1446249931555847 1.3360116107254396 0 0 0
31 1 4.320534071674078 3.6205063237639683 0.5075274678080421 0 0 0
91 1 4.193168147670862 4.154418227242276 1.371155282346 0 0 0
54 1 3.5433159466436033 2.988071700024635 0.10361605986416236 0 0 1
2124 1 3.4149799602001507 4.036564201269798 0.3243801136223646 0 0 0
1505 1 5.235113810320331 3.380740341240056 0.18498465003560965 0 0 1
64 1 5.160105945212565 4.3238422104749095 0.6454189898625632 0 0 0
36 1 5.875792872071597 2.9186565362351287 0.7884694885342859 0 0 0
95 1 6.573375498048828 3.813456125731354 0.6501873287425307 0 0 0
795 1 5.896312172036024 4.028362285783126 1.4144951959308103 0 0 0
100 1 8.07583012784176 4.066645491368789 0.8282096402990974 0 0 0
1995 1 7.450837419275503 3.188511090742541 0.6950086046838282 0 0 1
1560 1 8.382406697823578 3.2324375334502267 0.181190546020004 0 0 1
1507 1 9.115435260024949 4.000215603163938 0.4790987007308421 0 0 1
321 1 9.957444766871193 3.90438032875763 1.0794911114506256 0 0 0
2049 1 9.37295137373239 2.9353823421514336 0.2580977158490587 0 0 1
2032 1 10.537209803518293 3.168032900215269 0.5875145974345626 -1 0 0
78 1 11.559283533689223 3.803984168996911 0.23924810336108474 -1 0 0
42 1 12.39249710912313 3.237591494378781 0.12466346076412047 0 0 0
2034 1 12.070143468437541 3.8165227470743086 1.0642135602249843 0 0 1
135 1 12.482347563370425 4.222716210597545 0.030987512978896875 0 0 0
85 1 0.46594814568741777 4.409760505367793 0.018976154875246818 0 0 0
2064 1 0.6802089034020615 5.445983021564086 0.1048107307374424 0 0 1
358 1 0.8068745451282594 5.0426427265640985 1.107256535236146 1 0 0
89 1 1.7591367798488986 4.898349667290341 1.1160615089444446 0 0 0
2078 1 2.526424310994265 5.596545924711539 1.150325623775074 0 0 0
2046 1 2.5789368133176853 4.436390925037876 0.6542492580425373 0 0 1
2017 1 2.2488999207783187 5.391348563621983 0.1981282361046234 0 0 1
609 1 3.328101463720756 4.805897544947129 1.2885328510849556 0 0 0
86 1 4.139184584338552 4.768118877839818 0.5107263402735517 0 0 0
1989 1 3.7622726118176284 5.676261241554832 0.7609169181759058 0 0 1
1857 1 3.1614698030889317 5.1097485928074 0.24614931346531585 0 0 1
339 1 4.666438828013777 5.417695986369891 1.0637527925100239 0 0 0
344 1 4.946860373576869 5.3088326532450685 0.1250952572547356 0 0 0
623 1 5.746437199170927 5.054305408279652 1.290151613564055 0 0 0
404 1 6.218235906982658 4.835334586571936 0.46121672391958185 0 0 0
156 1 6.4731706073034205 5.67656245636298 0.8123632938186184 0 0 0
342 1 6.804373088164451 4.669011000189509 1.3645750691912932 0 0 0
1809 1 7.214780916584198 5.558745069711376 0.13879216069216033 0 0 1
2053 1 7.283871409310878 4.421190559984467 0.37112471037269623 0 0 1
94 1 7.293911189223107 5.7400406513161375 1.400031736210042 0 0 0
316 1 7.993289713739747 5.2808128006025505 0.7974611907613507 0 0 0
102 1 9.83083226237394 4.701302998654133 0.23345153077657518 0 0 0
386 1 9.637533961333585 5.740632267940221 0.3831252977941171 -1 0 0
318 1 8.722843773161344 4.54824177230555 1.3146823532833936 0 0 0
563 1 9.662097616553945 5.1900652679295245 1.2557255422841307 0 0 0
348 1 8.795420605492756 5.660876052491988 1.2064727648918794 0 0 0
2026 1 8.898951531631939 5.002964309369594 0.41508838229995976 0 0 1
2035 1 10.715159394935672 5.3784725796672275 0.8187926158888285 0 0 0
352 1 10.790034289594482 4.363725944914111 0.6118093643837592 0 0 0
2027 1 12.92634314755743 4.615896676815199 0.9990707964251558 0 0 1
109 1 12.58312748276392 5.320149253855346 0.2016607392840062 0 0 0
357 1 11.801100995548074 4.779878917280758 0.7222604447798922 -1 0 0
596 1 12.434557016415766 5.543918005959081 1.251201451301538 0 0 0
573 1 0.28032037665119974 5.996786528517855 1.1016249826256503 0 0 0
361 1 1.186136995187694 6.802135998933957 1.3712962134724822 0 0 0
84 1 0.976050568554768 6.5382533928125355 0.16767018609951742 0 0 0
114 1 0.23089548624385633 7.026770581666812 0.9821697331139992 0 0 0
366 1 1.4240470784670218 5.802994344877238 0.7683143748784718 0 0 0
136 1 2.2997386443399828 6.783140848701207 1.3727677325410437 0 0 0
2018 1 2.2096852198598134 6.411040050317421 0.2486995810814339 0 0 1
65 1 3.1299473047868975 6.3295298071717925 0.2855621203239994 0 0 1
1607 1 4.055270260903886 6.778968057060601 0.7240722073956664 0 0 1
149 1 3.294352105212865 6.355519181635016 1.3314956019670863 0 0 0
1894 1 4.9968295900386925 6.360984130174692 0.4028039865351344 0 0 1
2105 1 5.556076224807679 5.997850643115563 1.2415539672227935 0 0 1
1895 1 5.890634687415666 6.74883995070136 0.6429265545700894 0 0 1
2082 1 6.703196197774518 6.512981019692776 0.049596505691007466 0 0 0
594 1 6.463863341839041 6.586847330468099 1.3502166491889633 0 0 0
1602 1 5.807002176955636 5.798876130521707 0.132483243213807 0 0 1
2025 1 8.23464144785328 6.202168377091206 0.5439411360867379 0 0 1
2112 1 8.419122757757679 7.183181232175313 0.46149598833543926 0 0 0
405 1 7.38254226860845 6.720184203299834 0.9364938317051642 0 0 0
126 1 8.290794789213566 6.90835606794231 1.4066141367205673 0 0 0
101 1 9.333929584091035 6.443154190314061 1.0247141310951733 0 0 0
2107 1 9.025046700541935 6.4574531934767085 0.057773348129119835 0 0 1
1538 1 10.672818209531078 6.3397853449769705 0.6561224455940924 -1 0 1
351 1 10.19469832608894 7.022987721665349 1.2201044069544436 0 0 0
76 1 11.516058191466705 6.7731395066212725 0.01830532696390645 0 0 0
621 1 11.440281268124929 6.976195617896483 1.0207417876359695 0 0 0
870 1 11.42100889505108 5.791764619677177 0.2252803333451654 0 0 0
1137 1 11.429535766164213 5.948015604402551 1.3359802303575328 0 0 0
1847 1 12.356955060159711 6.421296094234841 0.7019047902742418 0 0 1
83 1 0.9272121761304193 7.731541602480703 1.142955945584391 1 0 0
166 1 0.4637554842063018 8.43979228913488 0.6210319515918722 1 0 0
2062 1 0.963424687680833 7.781395062043409 0.053308246044741464 0 0 1
2093 1 2.7426603234890017 8.195807438602595 0.5273219924989169 0 0 1
188 1 1.6177127151700006 8.334510817054479 0.6126830587451662 1 0 0
174 1 2.212927194505037 7.854179025504937 1.3077082277602283 0 0 0
2016 1 1.8622143076580522 7.313453024488895 0.46960691551007083 0 0 1
175 1 3.677286684452108 7.677890489829376 1.3690649033154294 0 0 0
1828 1 2.9939357036272387 7.286436036641481 0.7410885136374468 0 0 1
1856 1 3.8158810172269 8.157880872080307 0.4721613199769438 0 0 1
1892 1 4.928593323322043 7.243299605317866 0.8445005644494904 0 0 1
176 1 4.516077106439559 8.246368441639682 1.2323600376397004 0 0 0
1890 1 5.366523540779367 8.059632860298125 0.3602920761083042 0 0 1
639 1 5.704667151380094 7.674113940892307 1.2965814871002967 0 0 0
159 1 6.710912152527966 7.510448225182012 0.8826213196965278 0 0 0
453 1 6.248640752450823 8.401923257445318 0.5768494201404096 0 0 0
1611 1 7.679980418867195 7.887931048517906 0.9431557298321629 0 0 1
2074 1 9.517719793746684 7.331627698444277 0.5001681895708151 0 0 0
438 1 9.811861831987942 8.01994866566785 1.2354482467798777 0 0 0
401 1 8.723984931941379 7.973027312527867 1.1541547953975935 0 0 0
158 1 8.865862842145168 8.014813285448584 0.13259707836461457 0 0 0
160 1 10.413634995014638 8.515781676427737 0.520970722054484 0 0 0
130 1 11.323383056541115 7.864216700945178 0.3884259304827136 0 0 0
922 1 10.884842636923938 7.788376639807042 1.3589336037845978 0 0 0
164 1 10.496339741430328 7.446842291102749 0.20675941648057714 0 0 0
2080 1 12.223424017849515 7.4535832082497215 0.6466762421692741 0 0 1
382 1 12.830948914112485 7.822390183011338 1.422340570232754 -1 0 0
2063 1 12.429659643555974 8.468290665643396 0.46535749002689236 -1 0 0
142 1 11.855572346896132 8.178507891165653 1.292569067609262 -1 0 0
2121 1 0.7432967405603745 9.953830133057684 0.2823898128759609 0 0 1
198 1 1.3623479344757154 9.270073623784523 0.7421803733211165 0 0 0
1879 1 0.008395255422872203 9.356333540495053 0.5503986397859177 0 0 1
1198 1 0.597245566772069 9.69268033058302 1.444052581495524 1 0 0
194 1 2.5834091207228616 9.177927989441772 0.894265481897883 0 0 1
2091 1 3.5397043010619904 8.798852592597745 1.1890656455496968 0 0 1
140 1 3.316784491824429 9.087962122874885 0.10609529650670757 0 0 0
450 1 3.278972932344557 10.011248775981935 1.301418019704314 0 0 0
2133 1 5.376453967475992 8.698603268573493 1.2540701587007976 0 0 0
356 1 4.571971882787419 8.820093295788082 0.4237142986472693 1 0 0
385 1 4.342547219619795 9.63475069222728 1.1000032076332054 0 0 0
2097 1 5.379704684637272 9.595025889347275 0.7593453447999553 0 0 1
152 1 6.2119659356822 9.779669883440622 0.16518155289292147 0 0 0
1645 1 8.19643500605699 8.74881558507179 0.56677332197771 0 0 1
641 1 7.259878039659997 9.080722691838224 0.9647451587717305 0 0 0
206 1 7.987577906665934 9.769196474419292 1.0254061811251085 0 0 0
616 1 7.843968191332467 9.776294032780202 0.016026508422113846 0 0 0
648 1 8.889739109363648 9.63890260499781 0.19861804951742898 0 0 0
2115 1 9.951346309577621 9.362476865729418 1.1301780222203162 -1 0 0
1924 1 9.282753121185712 8.727880277928374 0.7007180984634205 0 0 1
593 1 8.99192500623037 10.049512242781997 1.158218196445709 0 0 0
2110 1 11.391462675924624 8.865799235185374 0.22749375752254034 0 0 1
355 1 10.757159808747838 9.652156190262232 0.588329584328574 0 0 0
437 1 10.752181101318868 8.77257430103234 1.390472100918329 0 0 0
2117 1 11.946461712887436 9.729432564822945 0.1939609510960524 -1 0 0
169 1 11.780379300367843 9.150102477439248 1.1132292335219443 -1 0 0
354 1 12.891225103295255 8.750792979242116 1.423868899653131 -1 0 0
193 1 0.3192724207664667 10.966072985099204 0.8897140128195669 0 0 0
229 1 1.1063032390505367 10.446040623202684 1.1559191434690885 0 0 0
1976 1 1.746263645226351 10.542069282880233 0.2289989192702282 1 -1 0
733 1 1.456629935489508 11.441004961649268 0.7497845788458151 0 0 0
683 1 2.546577645067426 11.371544409335144 0.4935907187138808 0 0 0
647 1 2.206600411439775 10.677832256481171 1.155056538689097 1 0 0
693 1 2.9845440012676168 10.14871940270527 0.3069676706636523 0 0 0
207 1 4.15469426177527 10.677464519796478 1.1620385410321987 0 0 0
231 1 3.2192688705316748 11.050894096446664 1.3040980506723625 0 -1 0
684 1 3.6430540578160877 10.887740909711804 0.33340716273481347 0 0 0
414 1 4.6431542651714715 10.551817733886645 0.2879545556100321 0 0 0
372 1 5.489918274239304 11.02029313162151 0.4951412380324764 0 0 0
1179 1 4.397555071331646 11.54692648174805 0.47882560555212483 0 0 0
1858 1 5.16132959353182 10.331357600363162 1.3089703060367504 0 0 1
722 1 4.965636410731335 11.31344377348404 1.3478091109083905 0 -1 0
150 1 7.103416862143213 10.25148488005504 0.437355953627949 0 0 0
210 1 7.036787013102633 10.924001832667198 1.2468014086320678 0 0 0
507 1 6.180607247709745 10.354170365270875 1.1036192490434515 0 -1 0
1967 1 6.399286833552625 10.982855694759214 0.10853045099584292 0 -1 1
2134 1 7.939795253731951 10.732689435658882 0.5947008817638372 0 0 1
727 1 9.703249838566668 10.607620815187191 0.7180455074401874 0 -1 0
511 1 8.922998687289924 11.242008699421154 0.9070246613463554 0 -1 0
211 1 10.62127008329054 10.848365659335215 1.051280969032269 0 0 0
171 1 11.241783596319175 11.442393544963965 0.4038753621581565 -1 0 0
272 1 11.484980699274717 10.424110559274117 0.719011234433584 0 0 0
897 1 12.594769455045407 10.25970870017718 1.0376523685853978 0 0 0
712 1 12.30404138730427 11.2073298759082 0.7059558337098215 -1 -1 0
246 1 11.583086526148811 11.449571391523307 1.43206456115249 0 -1 1
408 1 0.7816872935380473 12.83223514382189 1.4102690935977373 0 0 0
5 1 0.5380691715623288 11.981244815289786 0.8642948847460009 0 -1 0
259 1 0.7647225916253808 12.906773891186994 0.3467976803494332 0 -1 0
1988 1 2.594634502056681 12.765444067441646 1.3765202465322188 0 -1 0
221 1 1.6229939163979734 12.571633301778874 0.725451422444162 1 0 0
1963 1 2.5507002030112274 12.55317169335212 0.3706919209595848 0 -1 0
476 1 3.4070239523938093 11.910049201230123 0.7834883115416523 0 0 0
447 1 3.7158253771819676 12.865870043598983 1.411323271089615 0 0 0
33 1 5.398138944718542 12.841585206103773 0.1514434774309 0 -1 0
1966 1 5.515663996970171 12.0524133047892 0.8503905971898231 0 -1 0
1912 1 4.352600476205647 12.64662761931592 0.6012379591718742 0 0 1
1961 1 6.5641426029910335 11.90920987165251 0.5541575810561389 0 0 1
1969 1 6.396695959405391 12.827190629346175 0.1772968262758856 0 -1 1
2160 1 8.603397640054895 12.28288410726558 0.6913478013594846 0 0 1
201 1 7.494216097513109 12.324785470801528 0.6385636220826901 0 0 0
239 1 8.106566057159123 11.673841506402724 1.36125702134507 0 -1 0
1760 1 9.559990768456215 12.009038246700358 0.1930223731679322 0 -1 1
269 1 9.3789566875549 12.160277493908422 1.3386846504806487 0 -1 0
515 1 10.345700599839132 11.846475018020467 0.9462833094029471 -1 -1 0
538 1 11.009085640644297 12.587722182174021 0.675882934964872 0 -1 0
1933 1 12.829924329310385 12.56997461443673 0.5456122976410506 -1 0 1
243 1 11.920689515276786 12.141389033849716 0.4588182483502341 0 -1 0
224 1 12.525386552841109 12.044016137874012 1.3971426018668869 -1 0 0
492 1 0.6315669287595286 0.8392768692221884 1.9130497695845334 0 0 0
489 1 0.9544095567833862 0.2441593278555007 2.8115950669121426 0 0 0
219 1 1.7405436764887579 0.17901306554792 1.8692933931837536 0 1 0
812 1 1.5581720696623502 1.0708977022914368 2.4927120784674113 1 0 0
223 1 2.732676850755343 0.2928784223871191 2.2786365793607657 0 1 0
487 1 2.3589560177677877 1.3502674268000723 1.7825403804663673 1 1 0
256 1 4.244448850437002 0.5619695697426934 2.025438243580394 0 1 0
282 1 3.2709486425784435 1.001891322950251 1.7644792586414204 0 0 0
283 1 4.959975257116718 1.379846713566216 2.204740288898167 0 0 0
288 1 5.239007089146967 0.27059910682378335 2.1474706880342866 0 0 0
522 1 6.160140976212261 1.00393788587939 2.4617018081296695 0 0 0
527 1 7.013287328669758 1.1601987537240315 1.730708757471812 0 0 0
721 1 6.617075427431244 0.018938663568965453 2.2940373105607845 0 0 0
238 1 7.81240845977615 0.47863461644779254 1.791747129471301 0 0 1
291 1 7.441875356945501 0.38219965487987617 2.8621820883825513 0 0 0
295 1 7.972410078278932 1.338533056971617 2.4392070877574024 0 0 0
1946 1 8.643443308685164 0.5806751002430174 2.230077831351246 0 1 1
2190 1 9.72849931471526 0.5676782834895231 2.209066884284172 0 1 1
972 1 10.716808285414885 1.207380694707167 1.9752501791149335 0 0 0
1978 1 11.036987230789613 0.19846091810858704 2.1926113948120904 -1 0 1
46 1 11.73573301363331 0.6680582900651022 1.5597466186095927 0 0 0
1983 1 12.612956954144963 0.9957909815785874 2.003875212821178 -1 0 1
811 1 12.110563942444964 0.17001025611725623 2.731264349841876 -1 0 0
303 1 11.823377656489834 1.1653210605703206 2.6172859612954875 0 0 0
249 1 1.2475586059672004 1.883183804008484 1.9417980709166456 0 0 0
107 1 0.33887372000311844 2.3292438195902796 2.222724234701473 1 0 0
276 1 0.5917434639723761 1.5270973719867025 2.786652557581262 0 0 0
759 1 1.1822034682169973 2.6929028388278824 2.5261178292040394 0 0 0
1741 1 2.8845378613142207 2.3207021342133474 1.914626149014285 0 0 1
279 1 1.7128377449302703 2.688284505487709 1.6382590048436936 0 0 0
445 1 2.1049379061083267 2.063277564477227 2.5557460648935737 0 1 0
517 1 4.012258802199976 2.0631676962856385 1.488769113526967 0 0 0
264 1 4.161637485678892 2.5216558236832167 2.5506227741084855 0 0 0
57 1 4.146464827115029 1.4901261875276357 2.6429753790825252 0 0 0
977 1 3.1493589515247375 1.7356721541111997 2.5905294798334433 1 1 0
285 1 5.131672750906818 2.2374966113667036 1.6873024114437345 0 0 0
1048 1 5.783403192845063 1.9084173356317709 2.634831873294718 0 0 0
93 1 6.2865187155628615 2.071806342434263 1.8539001210431012 0 0 0
960 1 7.078077110047713 1.6521291637733109 2.716421925327041 0 0 0
67 1 8.28646270600416 1.8945978756257027 1.601264278837599 0 0 0
71 1 7.312508216164815 2.128536922287901 1.7842614682753795 0 0 0
2029 1 8.000663443131312 2.3966125660084994 2.6358850434935066 0 0 0
1791 1 9.106402118674781 1.4879689239291005 2.1534439411211204 0 0 1
17 1 8.91150732710446 2.514492861941804 2.0414682591090103 0 0 1
2022 1 9.661034384711119 2.5078054177060647 2.811204894774179 0 0 1
1974 1 9.962507463465625 2.0886339496833717 1.8742890287786367 0 0 1
301 1 11.35682367911987 2.040112758552884 1.7338513621803746 0 0 0
2031 1 10.635471656774511 1.8662538556187653 2.740456505495722 0 0 0
99 1 10.660146152063877 2.881805961693671 2.803938480603199 0 0 0
758 1 12.6985080114574 2.855105354425531 1.5371779252552198 0 0 0
77 1 12.367695308105688 1.9304360188521723 1.8594763242405365 0 0 0
543 1 11.636445600047868 2.296413641988654 2.68734455200994 0 0 0
22 1 12.607939129399435 2.868144552104026 2.6288466462072706 0 0 0
541 1 0.4646465228708607 3.4204681555083796 2.4725002681595893 1 0 0
1032 1 0.15821861852264069 3.973617364080011 1.7371886210330887 0 0 0
306 1 0.7352071499289715 3.0988295449273204 1.466399530823418 0 0 0
360 1 1.2194665757010708 4.077425473437587 1.7026895683397194 0 0 0
252 1 2.5485250148256067 3.3069800860121568 2.0273724920384746 0 0 0
519 1 1.6855062394438853 3.5586279240274292 2.515970669519747 0 0 0
305 1 2.967851701310447 2.9415724398191543 2.8638589160226786 1 0 0
553 1 3.556164108270431 3.261358588132575 2.0923835094737995 0 0 0
30 1 4.316134283256472 3.9479088269208633 2.4131837515034187 0 0 0
123 1 5.03718743823702 3.5047394326033836 1.4686203589816396 0 0 0
90 1 5.294619455273305 2.9042710618130156 2.796755368247308 0 0 0
313 1 5.394281033089635 3.874726157979424 2.3620331884927404 0 0 0
523 1 7.106849970915763 3.0092676967987138 2.2753310815678525 0 0 0
551 1 5.871746917468553 2.951908494469261 2.000741569684905 0 0 0
612 1 6.339980807587437 3.8072552041165024 2.27250997993922 0 0 0
319 1 7.290618407155005 3.7233719941733825 1.5819873061455227 0 0 0
2023 1 8.068501272649442 2.9669375312560895 1.7123171414667313 0 0 0
374 1 8.328722393878898 4.115883805674661 2.1420080437751507 0 0 0
555 1 8.010256717096489 3.3745691284128316 2.7309714332643096 0 0 0
2000 1 9.850492121205827 3.381425848016384 2.1425343358649656 0 0 0
775 1 8.942051535332991 3.5085637969633447 1.536648908220196 0 0 0
104 1 9.352418091115982 4.310422273772437 2.1484427761911316 0 0 0
293 1 9.003480322687833 3.26974450332222 2.64375138523792 0 0 0
39 1 10.72245535104637 3.9356983561172543 2.636821402756558 0 0 1
103 1 10.653424974637131 2.907462270288325 1.7451525158357082 0 0 0
330 1 11.4959374475701 3.2595834424148746 2.283005992406152 0 0 0
597 1 11.050393081968124 3.9380858181587124 1.4455456365514436 0 0 0
1004 1 12.29688493166609 3.7374346914964343 2.0874205768141327 -1 0 0
868 1 1.307767609821177 5.017487920022522 2.286842506404579 1 0 0
334 1 0.001505179357340001 5.051799109998127 1.931010672382141 1 0 0
359 1 2.5227301302380924 4.423110956663767 1.6996606695045835 0 0 0
331 1 2.147091018730364 4.592964337911007 2.7723905554324926 1 0 0
790 1 2.2076465606136293 5.401734259171476 2.1503763541035594 0 0 0
763 1 3.5129976146956134 4.398275372262535 2.168946750155275 0 0 0
338 1 3.3959141489596076 5.089464420753667 2.8775567794312424 0 0 0
151 1 4.057675158397015 5.321130401214566 1.9389132245687482 0 0 0
2048 1 5.017973496372107 4.668837815997134 1.885701074874709 0 0 1
121 1 4.596781831490426 4.998857136174799 2.752425154583573 0 0 0
586 1 5.242237520223808 5.626892358058984 2.206293362428262 0 0 0
377 1 6.33182074005445 5.673109757923548 1.883432274510304 0 0 0
341 1 7.0693936279075364 4.498749167131236 2.456341826889266 0 0 0
2076 1 6.001877544849072 4.846948493762207 2.2412516626887187 0 0 1
2072 1 7.266401337340458 5.7478512098572745 2.5625472771120825 0 0 0
125 1 7.770209510734375 4.750610005600275 1.5971024499833593 0 0 0
587 1 7.976266290895748 5.033700090634071 2.743463097296174 0 0 0
315 1 8.821634792789922 5.233061698966752 2.2240801951475655 0 0 0
400 1 9.818213212645157 5.330924036977621 2.416146975940391 0 0 0
785 1 10.244327083978929 4.492699488203962 1.818286194786732 0 0 0
539 1 11.552012389701938 4.60246907843792 2.5360625468506584 0 0 0
333 1 11.018165142985508 5.078310969420932 1.7789408207739752 -1 0 0
50 1 12.10491052355888 4.641154147618503 1.6596959697448745 -1 0 0
347 1 11.98377380725888 5.605752191795766 2.149593495497475 0 0 0
48 1 12.890127034957171 4.345269353716649 2.6808293553535165 -1 0 0
649 1 1.1818747510646874 5.875092251331632 1.7941591079044608 0 0 0
572 1 0.5636231934452022 5.789524088246162 2.597827628765323 0 0 0
409 1 0.2929173719343341 6.658854796461665 1.9532691264715534 1 0 0
337 1 1.0628837318570041 6.971890877106406 2.6749776944457797 0 0 0
139 1 1.9091896192668179 6.508044814341709 2.3968661241530143 0 0 1
145 1 2.8537155615456604 6.65002665449428 2.803634592184669 0 0 0
287 1 3.1672778519618667 5.793243394794448 2.151975498658052 0 0 0
122 1 4.103460946442118 5.909740202934877 2.7361608864266285 0 0 0
2067 1 3.7233533053541943 6.76543430675977 2.165657968317061 0 0 0
2096 1 4.421560967947682 6.186441771762251 1.632140204172983 0 0 0
2101 1 5.45788177942677 6.752328378496913 1.8167318960496361 0 0 1
124 1 4.678752266787978 6.7388638553372315 2.6556132491504423 0 0 0
343 1 6.489060374578895 6.488454867108319 2.5298508837850484 0 0 0
856 1 7.414151443020598 6.710816301853343 1.9775069929384868 0 0 0
345 1 8.06683921102146 5.864683301540396 1.9985101662891958 0 0 0
429 1 8.430121471860286 6.843545074405371 2.612688441550533 0 0 0
618 1 9.214688247017607 6.264436946168959 2.149012541787579 0 0 0
644 1 10.01578838186608 6.5315099022858085 2.689752701097788 0 0 0
1865 1 10.15699837164259 6.0539403654726325 1.5698388847138056 0 0 1
134 1 10.596377095432159 7.169453210371238 2.186451573438281 0 0 0
624 1 11.51507321141968 6.729518113702219 2.2488008546910354 0 0 0
921 1 10.842639896838069 5.891519581324278 2.4025171601772866 0 0 0
353 1 12.326708890335656 7.011147301507179 1.6821899405447114 0 0 0
650 1 12.553961913742521 6.528796710090015 2.604536449485553 0 0 0
189 1 0.5904687787736079 7.703964730846622 2.13768197164812 1 0 0
444 1 0.8727136227013014 8.664714513990305 1.6381896738515156 0 0 0
412 1 0.18744440123541797 8.508781531540937 2.575005686887143 0 0 0
548 1 1.5772509279837943 7.437838618020378 1.9542651190292342 0 0 0
119 1 2.3335795980970784 8.483207354495377 2.6807357184475955 0 0 0
96 1 2.73960083089642 7.340563078073994 2.0569861700417875 0 0 0
441 1 2.9772752694342577 8.305580847048375 1.7839910503496847 1 0 0
2069 1 3.7702726575097234 7.836541788010377 2.4266897964211074 0 0 0
2075 1 4.518870512430436 7.34958488687108 1.8218682343363013 0 0 1
391 1 4.693383544833572 8.266002909985948 2.5636227020076503 0 0 0
365 1 5.372080500148342 7.552025044098215 2.49722330191873 0 0 0
346 1 6.773178759390707 8.324552437521364 1.456006475706385 0 0 0
860 1 6.526962787047665 7.472487598879934 1.9659797030999873 0 0 0
917 1 5.794282485160877 8.335129880597474 2.0937687794122763 0 0 0
891 1 6.763591242778319 8.299783606873598 2.6003407835599006 0 0 0
423 1 7.490022403453718 7.77274544989545 1.9741148317601296 0 0 0
19 1 8.54610103178734 7.676498338498659 2.173792390416474 0 -1 0
421 1 8.036412254573 8.643091587460164 1.5432119890819416 0 0 0
378 1 8.143421928328172 8.655750093893618 2.579785230568645 0 0 0
645 1 9.519196059317936 7.386554686077378 1.9525426758480207 0 0 0
867 1 9.350481136110401 8.146389237568327 2.5661783056605545 0 0 0
463 1 10.39104540321782 8.214163525695032 2.2146523384681576 0 0 0
410 1 11.477531942560645 7.83201948378404 2.1718746062689065 0 0 0
625 1 12.483553798281415 7.672142088808678 2.4012047798029137 0 0 0
168 1 1.242867591230298 9.128677151305679 2.454204042503166 0 0 0
465 1 0.3544882081575312 9.790104975850229 2.5551859290984082 1 0 0
435 1 1.9107104414256122 8.753251077045643 1.7262324284170456 0 0 0
710 1 1.9559743377883747 9.775053609666783 1.4688222925459067 0 0 0
418 1 2.785514989140314 9.314020526986015 1.867154046851651 0 0 0
737 1 2.095116857146872 9.667845194203686 2.518119212085398 0 0 0
178 1 3.9652507452728085 9.940578651907039 2.1184576601081018 0 0 0
2071 1 4.062493081426037 8.815593880446485 1.9999727223200547 0 0 1
278 1 3.1824955748360026 9.841934986746601 2.701321294918496 0 -1 0
146 1 3.3805845018581495 8.793381983771267 2.6428729051312976 0 0 0
367 1 4.877202983836575 9.378764099235493 2.0736661986093092 0 0 0
506 1 5.708403517171824 10.073773334951772 2.186123203852977 0 -1 0
2132 1 5.6294756451739465 9.244552742477284 2.785809345382425 0 0 0
233 1 6.288274935412565 9.23485298587852 1.480588380849009 0 0 0
180 1 6.616210231511759 9.707972953816942 2.5002709313338687 0 0 0
199 1 7.090269898555428 9.869201971601228 1.5066957476891123 0 0 0
1867 1 7.250926674692105 9.02124712018456 2.177307278088562 0 0 1
696 1 8.262775770578545 9.583680294529916 2.014148040327946 0 0 0
2193 1 8.991236953104028 8.753107961557124 1.8280438546664386 0 -1 1
376 1 8.9527730237027 9.11667700779375 2.818835393671965 0 0 0
678 1 9.820392970825555 9.310284336276219 2.1393278869190713 0 0 0
218 1 11.100731649594378 9.041819038982359 2.31871678909534 0 0 0
213 1 11.020040932757857 9.826259122854673 1.5846299191951907 0 0 0
708 1 10.488946269591207 9.851636953614184 2.6362975603924963 -1 0 0
384 1 12.51237069340059 9.735761386222709 2.0432367997733913 -1 0 0
490 1 12.08839500547534 8.88701849527382 2.1530501512553615 -1 -1 0
999 1 11.677050856172032 9.917802584055432 2.5953935143486198 0 -1 0
2169 1 0.20515589367271997 10.563939428484014 1.8632841310450792 0 -1 0
467 1 0.725759448944079 10.998245162008411 2.7247810167629165 0 -1 1
1929 1 1.2902537544305335 10.313245374743282 2.218534065994912 1 0 1
498 1 1.5862540829492144 11.232321766829667 2.1674981350324076 0 -1 0
472 1 2.616053407347827 10.557121914110885 2.012645102576361 0 0 0
496 1 2.6642020970428772 11.4244498076479 2.598271016904678 0 0 0
477 1 3.588433051358693 10.832964943000318 2.2901109299772764 0 0 0
422 1 4.580725589703442 10.726215488172327 2.0826645546101377 0 0 0
148 1 5.4615017310180365 11.04266803401965 2.2758553018465726 0 0 0