LAMMPS data file via write_data, version 7 Feb 2024, timestep = 25000, units = lj

6858 atoms
1 atom types

0 19 xlo xhi
0 19 ylo yhi
0 19 zlo zhi

Masses

1 1

Pair Coeffs # lj/cut

1 1 1

Atoms # atomic

1144 1 0.8322464926710673 0.7767774262596261 0.9840821673781979 1 0 0
36 1 0.00976887831407914 0.24457796169261573 0.35561038103049497 1 0 0
1031 1 1.8258904108179446 0.4108403342845428 1.0520640834707873 0 0 0
6825 1 2.7387900083160144 1.033700078288438 0.7929598968845103 0 0 0
1235 1 1.7850063472999247 1.4121524187015642 0.9703948201738732 0 0 0
1110 1 2.8483895622087805 0.11149042098938647 0.9665640184986415 0 0 0
1116 1 3.8218173635578605 0.651476906215336 0.41054744353208217 0 0 0
591 1 4.607509527549674 1.4329694665002304 0.7438521369698162 0 0 0
23 1 5.721145475312241 1.0585569065700167 0.550630287639274 0 0 0
6359 1 4.871623014426802 0.5937526142554514 0.24533642466789157 0 0 1
556 1 5.636293984794394 0.39084068722775706 1.3347339136907304 0 0 0
513 1 4.589840628089926 0.5679287898597276 1.207525017832335 0 0 0
1128 1 6.624565483644114 0.70772600725243 0.8421708133593866 0 0 0
597 1 7.318118950485499 1.132192856489313 0.08698310363475725 0 0 0
6408 1 7.496732438191708 0.12792914241555395 0.6897477926582992 0 0 1
521 1 8.309422094895984 1.2978056249320258 0.5736068798313861 0 0 0
17 1 7.348617601636751 1.2850350151156833 1.1366694990464274 0 0 0
98 1 8.237392776309235 0.3487738026826328 0.08477514234355546 0 0 0
6843 1 9.365068332578948 0.06402261294911589 0.09591117037067719 0 1 0
6800 1 9.030418421945734 0.6930874835112615 0.9707411817497007 0 1 1
6374 1 9.892708866981028 1.0620250476327333 0.46049745058582575 0 0 0
1501 1 10.14638711359301 0.4989204600554731 1.30854374140867 0 1 0
1632 1 10.968059946832177 0.3631658287004318 0.4408835711293719 0 0 0
25 1 11.601384832805861 1.2276204274128957 0.2140581512786524 0 0 0
564 1 10.671147470424089 1.2784739423358193 1.0125389778136678 0 0 0
6416 1 12.867825021101522 0.5675643398809854 0.26526788648676974 0 0 1
2483 1 12.859483901346122 0.012334336734870277 1.1540608511881554 0 1 0
1056 1 12.012696893238514 0.5315433359619945 0.9205497957196488 0 0 0
487 1 13.982907756831217 0.47080478261699976 0.3619807270306531 0 1 0
531 1 13.908001136857735 0.18615982249153543 1.4219592879454794 0 1 0
71 1 13.573691796992719 1.3825043427634947 0.38233922613877236 0 0 0
1134 1 13.182998470842156 0.9522182819668324 1.199983593101225 0 0 0
611 1 14.967584360041627 0.33985513907159676 0.7129159622655031 0 0 0
1099 1 15.874035682474815 0.93137968278237 0.6125607343956466 0 0 0
31 1 14.636319080122933 1.2232225849524734 0.6174272780443049 0 0 1
612 1 15.474775552609573 1.3841349537738898 1.402101530145348 0 0 0
661 1 17.166189447114522 1.0765764618694187 0.8305891242167261 0 0 0
538 1 16.600254239510825 0.2002351347568907 0.6198690996249601 0 1 1
6851 1 17.372186558439296 0.013309841333133106 0.13128735827044744 0 1 0
991 1 18.234987932688195 1.1160583385977918 0.16068988757178218 -1 1 0
543 1 18.566958094690573 1.3314839441696136 1.143962414759532 0 0 0
1024 1 18.05758099207903 0.4966672597955483 0.9290390401730989 0 1 0
580 1 18.993267322881316 0.2878754093747433 1.4342889382351067 -1 0 0
6388 1 0.6466406711766409 1.8707550742228132 1.0045770903217084 0 0 1
616 1 0.030613327102751855 1.597342880657335 0.27824382968011663 0 0 0
116 1 1.2647024287501687 1.982481582552383 0.16903380302761736 1 0 0
5973 1 0.01621920558604648 2.6142810500031377 0.4423244857784134 1 0 1
1039 1 2.357196424252917 1.916830582552191 0.18362065516072856 0 1 0
8 1 1.682232968012551 2.3042221928613076 1.2192873135300815 0 0 1
594 1 2.669756446793942 2.7940847593045444 0.8822256739787756 0 0 0
54 1 3.051729407297129 1.8224165124654388 1.2968772989570758 0 0 0
11 1 3.4854754685974036 1.7498861001775545 0.4141266045074382 0 0 0
1204 1 3.8466971197136446 2.6443170593777197 0.8190527069077574 0 0 0
6840 1 5.594852602115449 2.0141403508510667 0.8490178603864935 0 0 1
95 1 5.843501683805919 2.790229091193062 0.17589344738191062 0 0 0
9 1 4.732350413216181 2.351702932406832 1.274985357193252 0 0 0
994 1 4.650951938794159 2.5322295807338406 0.17111560599195208 0 1 0
141 1 6.572631122084021 1.7754173305714753 0.5927258841888262 0 0 0
592 1 7.239927146710442 2.305843609193581 1.2702811795687012 0 0 0
637 1 6.192322984871048 2.761449220180465 1.2516957984881831 0 0 0
5383 1 7.560946830329783 2.1419328380896547 0.332397300935494 0 0 1
565 1 8.872623585927194 2.2321974408570293 0.7783681147299587 0 0 0
97 1 10.004350549654927 2.0909697768731834 0.8956613807208327 0 0 0
62 1 9.691769941829259 2.884909452333157 0.3266499297228497 0 0 0
1059 1 11.644087233812114 1.7112204856931328 1.2280880991450365 0 1 0
59 1 10.958321008305965 2.121356540473513 0.48810768617928246 0 0 0
5873 1 12.550331556287617 1.567890144879597 0.5989664258615025 0 0 1
115 1 13.026909822027479 2.5945040540499646 0.795329150539781 0 0 0
522 1 11.929633060461986 2.712064042781683 0.682255251213507 0 0 0
6369 1 13.562790958439562 1.8774135061126374 1.3676797298950285 0 0 0
1219 1 13.970615766112541 2.829431079627297 1.2511159640945435 0 0 0
608 1 14.232893613495026 2.1383819409787366 0.5255563855844468 0 0 0
1708 1 15.971919402836525 2.3402302941887534 1.2651242364735682 0 0 0
1703 1 15.241312917424175 2.128605052210661 0.43954462552037843 0 0 0
620 1 16.26791015704033 1.7474724905325199 0.18552564867655835 -1 0 0
732 1 17.01535209785691 2.550616160612272 0.9894215445123163 0 0 0
5879 1 17.399796035851296 2.000825192115089 0.3006918219798523 0 0 1
10 1 18.169954473398903 2.2747250448009506 0.8713934677698364 -1 0 0
86 1 0.8024850482468641 2.9374296184478412 0.9811213177905354 0 0 0
6471 1 1.003841433362175 3.8494015144402742 0.5565478193299659 0 0 0
6459 1 1.6861566173561136 3.0499330160624245 0.42776866359960936 1 0 1
93 1 1.8133978336020842 3.5756115530192494 1.351420858357935 0 0 0
6351 1 2.5378331905311735 3.819350425697731 0.528359715612257 0 0 1
509 1 3.417584872111315 3.6002468575584645 1.2494546167960774 0 0 0
50 1 4.0676105355856444 4.33186425179696 1.3830810792885686 0 0 0
92 1 4.2892626301634245 3.707075986136449 0.5451234677441086 0 0 0
51 1 3.3776686404090692 3.3943814380765254 0.2668540794423999 0 0 0
6354 1 5.163386346858284 3.157329865677839 0.8982564809564197 0 0 1
56 1 5.081176302564261 4.048744743266528 1.3589946192001616 0 0 0
5901 1 5.39858975779757 4.074511033885791 0.2771946529612985 0 0 1
677 1 6.909549760097527 2.9474755233627215 0.4201658454073707 0 0 0
6524 1 6.989504362715005 3.9625407733789775 0.3672816083521711 0 0 0
6560 1 6.054125266150158 3.736885902130402 0.9220013231001126 0 0 0
680 1 7.145631510151459 3.486180067715192 1.2109539843977657 0 0 0
719 1 7.819863323457012 4.263990913165363 1.264299252122111 0 0 0
227 1 7.999661601907593 3.0794549997960354 0.7615048569081714 0 0 0
6521 1 7.977345531020096 3.82427971018672 0.07925772378852824 0 0 1
24 1 9.031172661152148 3.390553517801085 0.7734516431942524 0 0 1
1694 1 8.957460553435773 4.2317769739746955 0.19433225875968638 0 0 0
144 1 10.021012833052412 3.495434196927107 1.041664253909865 0 0 0
6368 1 8.88117165874636 4.372302054139765 1.2300876481416525 0 0 0
101 1 10.106106464639993 3.961962060942407 0.057630353374395545 0 0 0
6410 1 10.710819306602659 3.034402967885361 0.6650565272149972 0 0 0
66 1 10.992172035969313 4.0092057448109815 0.6214649924118262 0 0 0
648 1 11.275241743798658 3.2500065779444025 1.4479466835156314 0 0 0
602 1 12.01204860773367 3.727079776787094 0.7907883288696155 0 0 0
65 1 13.142094017467993 3.6690312074066433 0.9895975686318957 0 0 0
37 1 12.682838276444176 3.404092594477798 0.11936571535130353 0 0 0
1175 1 12.652773702405286 4.379867798280189 0.07352184105282161 0 0 0
107 1 13.92687809466696 3.175967362310435 0.30132642994002246 0 0 0
6420 1 13.757990969272441 4.228584367325526 0.3661379030253744 0 0 1
6006 1 13.971643590358756 4.092237108767232 1.3760776204672547 0 0 1
6338 1 14.959245437348322 3.0140967518850847 0.182211871310593 0 0 1
6456 1 14.753317965261738 3.9123501619021535 0.6501094804539194 0 0 0
6499 1 15.235819689110839 3.0647827368064533 1.1250452318372133 0 0 1
625 1 15.6503185514392 3.936593589353477 1.440194998712585 -1 0 0
614 1 16.135090299210326 2.9262529222872358 0.31856630888158255 0 0 0
162 1 16.3205885020245 3.9714954920174774 0.5585429479419196 0 0 0
122 1 16.434503695969052 3.2868450827429356 1.3776819093014387 0 0 1
6425 1 17.064895221350803 3.3045714229729284 0.19126073402013732 0 0 1
90 1 17.32214221984237 3.7917439357040914 1.115126805801381 -1 0 0
6392 1 17.427232625654597 4.365074592823729 0.19989473215258713 0 0 1
5887 1 18.95142673662344 3.6881069623935474 0.23437766158387519 -1 0 1
5939 1 18.8063441839654 3.4187506348154546 1.2428357125044986 -1 0 1
205 1 18.114273006345975 3.2472032367190793 0.4885734637495095 0 0 0
622 1 18.254725455938182 4.239221072396597 0.9101899616317511 -1 0 0
5938 1 0.19482705458689323 4.5321992746279465 0.9139535178053029 0 0 1
673 1 1.0379890193205175 5.0657484191011495 1.301654902504731 0 0 0
4989 1 0.517873118191336 5.7181023205731805 0.47569345623911374 1 0 1
6507 1 1.2014989200613122 4.875372031336221 0.3563511639949202 0 0 0
6467 1 2.831057171502206 4.431408413207824 1.4599442860280443 0 0 1
253 1 1.9539432308340843 4.599490113061565 0.9615823512452124 0 0 0
747 1 2.6369151060762093 5.542489296287851 0.9828967281621422 0 0 0
6548 1 3.341461487546388 4.445375451891143 0.527317319809027 0 0 0
6510 1 3.731522105287507 5.428999513664581 0.9762525406640743 0 0 1
4915 1 3.219157973614411 5.722745305458144 0.19892507476193155 0 0 1
5976 1 4.455075328369002 4.758167682921371 0.47270206221417 0 0 1
6474 1 5.437745411093909 4.990372655005714 0.9604919511538197 0 0 1
1245 1 4.740991779092515 5.757633204898836 0.5656357695472991 0 0 0
6434 1 6.478600466932211 4.491117729465862 1.3787036695924795 0 0 1
1292 1 6.392398577502779 5.491456636819725 1.3104965433630253 0 0 0
1205 1 6.210112597241271 4.675687300213587 0.4385927954658088 0 0 0
142 1 7.311018223218988 5.0408693465656995 0.7641409968053858 0 0 0
1294 1 8.187148540518006 4.8442277293650005 0.36617946494732523 0 0 0
678 1 7.7633961091260675 5.719846122556441 0.052408527260066895 0 0 0
187 1 8.377865373876716 5.302275233371791 1.423820463480974 0 0 0
6525 1 9.079084907306115 5.224685133712766 0.674776262709176 0 0 1
6559 1 9.98307391952528 5.699829586316326 0.6049991204126158 0 0 1
6530 1 9.809920733064592 4.555387353088578 0.8845120801836956 0 0 1
6072 1 11.568919765013183 5.679109777249056 0.737590434131575 0 0 1
5960 1 10.728618267314197 5.09788994053032 0.6425400701677911 0 0 1
6415 1 11.899448986850004 4.743057954261052 0.7202477010941215 0 0 0
5915 1 12.54130591041761 5.518129574084029 0.3702910702742318 0 0 1
5387 1 14.154993474315658 5.0711412371605205 1.0667187018756947 0 0 1
70 1 13.16099828126264 4.8244480375510355 1.018361624828328 0 0 0
6492 1 13.614262224795237 5.410744403137021 0.21275807750502584 0 0 0
5921 1 14.496972100745905 4.7812118318113725 0.006695758406959129 0 0 1
609 1 15.033095293392549 5.807999467142687 0.4914037811482607 0 0 0
653 1 15.760941984502491 5.2328696420080645 0.012121935205877505 0 0 0
650 1 15.104791240453949 4.853532898899507 0.8340527239869161 0 0 0
203 1 16.108199334713515 5.015862506401589 1.0975139870492505 0 0 0
663 1 17.31752744376429 4.873217237147739 1.0981105656826124 -1 0 0
5400 1 16.71880101951146 5.0968467038663405 0.2306854479004736 -1 0 1
659 1 18.4616255546913 4.740768326611692 0.014700143982512515 0 0 0
6011 1 18.239065163139735 5.3925982336596165 0.7372885690899619 0 0 1
6432 1 0.4332756926454394 6.8160522927128975 0.75105326184116 0 0 1
6470 1 1.2710708720265091 6.663434130698099 0.09932142059127647 0 0 1
706 1 1.5676753123046852 5.868874054378042 0.7913614908699017 0 0 0
5449 1 2.1339819320487554 6.393402051744769 1.4247178063181607 0 0 1
6463 1 1.6324821586223917 7.167085706757944 1.0281884259508045 0 0 1
5895 1 2.3032325803498597 6.515446919004706 0.17711785948586878 0 0 1
136 1 3.140392444536663 6.529235001666273 1.007798221813023 0 0 0
6010 1 4.012037065582558 6.740431047101845 0.19749631349620161 1 0 1
751 1 4.188743357360072 6.344030035046716 1.244543445969348 0 0 0
6552 1 3.038567004685387 7.260280606511935 0.02109860285060685 0 0 0
795 1 5.191116839158314 6.0948135416383415 1.4227347799789505 0 0 0
838 1 4.9097695126359255 6.936092482467794 0.8204220378362697 0 0 0
679 1 5.751222074027479 6.044918037485251 0.6166351150134195 0 0 0
713 1 5.711910814954226 6.958930739649747 1.363880490496516 0 0 0
224 1 6.8322725188100994 6.253142328484205 0.4380120418697794 0 0 0
183 1 6.553013591613721 7.2191090449372695 0.7764617871626504 0 0 0
266 1 7.545783516479193 6.7961355331007685 1.0178369487857666 0 0 0
600 1 7.892515650843001 6.8121020127684995 0.03608420710176663 0 0 0
6475 1 8.562927449742821 6.26664746883506 0.8450530064043632 0 0 1
230 1 8.63979291100389 7.2547334257504845 0.9238301341643305 0 0 0
754 1 7.482413340108842 5.915011773686275 1.3653206929105326 0 0 0
6486 1 9.604737841058196 6.674907045481782 0.7650944046449838 0 0 0
844 1 10.13574122498648 7.290604838844992 1.409177742267379 0 0 0
5966 1 10.827288847006871 6.19536451560343 0.2441130138743339 0 0 1
145 1 10.578605584486224 6.237955918207746 1.283329653692944 0 0 0
763 1 10.83904082202187 7.169739357602064 0.582371987701238 0 0 0
1217 1 11.448735524175026 6.659388512599856 1.3043059368228869 0 0 0
106 1 11.911572482848204 6.53984035511879 0.34693678011544554 0 0 0
108 1 12.983951466333474 6.601361489013606 0.46804129488492574 0 0 0
1257 1 12.410232376807976 6.264867556951878 1.3277273853413116 0 0 0
149 1 13.44972842515291 5.872268288441792 1.1654655578933775 0 0 0
1179 1 14.072475131266195 6.472531406370997 0.10123220223202176 0 0 0
1180 1 13.27916527926254 6.80401716354222 1.3720134063999565 0 0 0
692 1 14.416330228887908 6.4624292883835075 1.3164494746518294 0 0 0
199 1 14.926586033479035 6.818304757010839 0.42066560046038487 0 0 1
201 1 15.545747057605736 6.6660158578656015 1.206491273674811 0 0 0
6504 1 16.110806906138396 5.946286467067962 0.6445462509239881 0 0 1
5484 1 16.745457427968418 6.8551315726140665 0.5687852014736733 0 0 1
167 1 17.15945597778505 5.966148724538668 0.6825619603704871 -1 0 0
210 1 17.593526258605618 6.827995476748088 1.3571520584027545 0 0 0
342 1 18.357351971256488 6.5376296596771555 0.7170242279835694 -1 0 0
5406 1 17.69030585608171 7.3057492210142785 0.4884053246199237 -1 0 1
6621 1 18.65081186707374 7.30709988261886 0.10901439642061989 0 0 0
6012 1 0.8936314363137723 7.8335115027653 1.3605338004706182 0 0 1
6591 1 0.8227159158243261 7.60057218321641 0.04977081779879047 0 0 1
5486 1 0.08997921296975325 8.236646186582586 0.4083961522884658 0 0 1
336 1 0.38684720556368973 8.720468256231412 1.3241372292106286 1 0 0
214 1 2.5783511265911176 7.385316005564441 1.0034070829384287 0 0 0
749 1 1.7228406674311092 8.31673511593176 0.598360575975152 0 0 0
176 1 3.7917778999067067 7.356483847210123 1.0083097020048986 0 0 0
1283 1 3.912410603142793 7.9799582425967825 0.18121013265020255 0 0 0
215 1 2.94056651012919 8.337667272611416 1.1511257410704292 0 0 0
221 1 5.728849523757967 7.398173473093514 0.1966805092295662 0 0 0
1285 1 4.545343484794634 8.336752771879768 0.9157883310488982 0 0 0
1405 1 5.417545401529796 7.899316728871068 1.055383752296197 0 0 0
791 1 5.322219046153298 8.430508718684537 0.2159903259535635 0 0 0
6511 1 6.387958107904909 8.209432456047562 0.32406013996489225 0 0 1
219 1 6.328155524309954 8.007143871407843 1.427080665946584 0 0 0
6562 1 7.08843627566591 8.744069337948234 0.7777467014111953 0 0 0
5498 1 8.070363287195457 8.172459051371764 0.7595668916874643 0 0 1
6020 1 7.373126812953693 7.646401859306059 0.2576647563661228 0 0 1
6073 1 8.911162167480633 8.618057162697472 0.34595261736949434 0 0 1
281 1 9.762304884519946 7.616756087694018 0.4004741807213507 0 0 0
225 1 9.479964385998452 8.091429036079093 1.2828631374581867 0 0 0
6487 1 10.479419726874687 8.190994910954307 0.7959604859614426 0 0 0
1827 1 11.43593445090422 8.390720728156428 0.8888739560357403 0 0 0
681 1 11.892731304724785 7.563994008804667 0.5849265094723173 0 0 0
196 1 12.872717323069454 7.5872204118860305 0.8458909429618738 0 0 0
195 1 12.607738147296011 8.474287016441885 0.37042058815160156 0 0 0
1872 1 12.31431702513432 8.298176286383887 1.346280737250199 0 0 0
850 1 14.000445123157848 7.35428456168453 0.6288644193043802 0 0 0
771 1 14.338708161807508 8.241160002045671 0.8955192531595608 0 0 0
770 1 13.385966703133303 8.474257115241935 1.1530332669052283 0 0 0
283 1 13.683579895536178 8.517076010737778 0.12029619607422275 0 0 0
6493 1 15.168506253138577 7.6305238900519905 1.3334991857140495 0 0 1
6587 1 15.94964184870764 8.407445921986206 0.7801631553887264 0 0 0
6583 1 15.849351562475743 7.3546846322730675 0.43857905211500947 0 0 0
198 1 15.074920192259784 8.278662147365745 0.22005692978846433 0 0 0
6586 1 16.81824837715176 7.869599566047403 0.5476994598001209 0 0 1
249 1 17.450406416229356 7.840105922597445 1.3542567310984988 -1 0 0
156 1 16.23309244734809 7.591195864496468 1.3628027646376604 0 0 0
667 1 18.676290166392914 7.4550337393763515 1.2530833873202707 -1 0 0
295 1 17.859251713557768 8.347148938163048 0.3424328216805904 -1 0 0
823 1 18.262116073221527 8.515862234201666 1.2512549009041314 0 0 0
332 1 0.9818451322525897 9.237585355490133 0.7048951725072942 1 0 0
339 1 0.6619791725402258 10.014386409789896 0.21285978176612724 1 0 0
6054 1 2.0136338023230103 9.40350193757861 0.9566863367302034 0 0 1
344 1 2.4153211743431404 10.101493895130144 0.16681612283622613 0 0 1
6551 1 3.1945049970428334 9.04305420217504 0.4397761913437013 0 0 1
6594 1 3.792933111765692 9.058648687220145 1.290593203595848 0 0 1
6105 1 4.237180811928177 9.73216304201199 0.7358410027331191 0 0 1
863 1 3.33467183821105 9.977268512840608 1.0476600225849726 0 0 0
6592 1 4.400549707322775 9.032557317109235 0.11163743588147748 0 0 1
226 1 5.387418494180906 9.459268609250842 0.3133269181935232 0 0 0
302 1 5.135597641473377 9.96320979436474 1.2221150516492738 0 0 0
222 1 6.145376238231887 9.310636490158029 0.965499504355394 0 0 1
270 1 6.826157633554832 9.872401077478408 0.44966874928889333 0 0 0
6567 1 8.026179593537641 9.175133133494013 0.9039032525650792 0 0 0
185 1 8.5465120156011 9.650348290588523 0.09689533282520336 0 0 0
1327 1 9.878584431850058 8.94606982009819 0.8279817827407262 0 0 0
796 1 9.16676167859998 9.600641068060481 0.8396260553376672 0 0 0
6028 1 10.077120941024104 10.012624678263919 0.8277568001534084 0 0 1
798 1 10.894988641138426 9.045332504711084 0.3368113989779495 0 0 0
280 1 11.068652420131269 10.021603365540814 0.9810624667522743 0 0 1
1337 1 10.74329455915916 9.156065704263563 1.4068382338802132 0 0 0
6035 1 11.8718484213926 9.138571604776935 0.19982382095223045 0 0 1
768 1 11.917600864487774 9.27155673610901 1.2603975409374186 0 0 0
813 1 11.733416690004372 10.110199236143485 0.181056942102248 0 0 0
691 1 12.432437960293672 10.185567323578159 1.11767070226937 0 0 0
5513 1 12.7445670748628 9.43581784352602 0.5528915302921066 0 0 1
1263 1 14.177664191172592 10.206092568185232 1.0208040940548753 0 0 0
810 1 13.922907320641611 9.33802821987213 0.5985172835496402 0 0 0
1834 1 16.0190371425687 9.446230990903329 0.8435321466947202 0 0 0
6541 1 14.996471198157694 9.027383697093503 0.9512959498575856 0 0 1
286 1 14.949644073060734 9.80752012532962 0.3364180978108416 0 0 0
246 1 15.222329811301629 9.874366566508586 1.3487182390355907 0 0 0
338 1 16.85195132586304 8.925360596167438 0.4084832598231416 -1 0 0
6623 1 17.041520066461413 10.101076111749215 0.5059132775383426 0 0 1
6590 1 18.83170643736738 9.263990126516303 0.62747328402401 -1 0 0
1304 1 17.722168452715287 9.374674854930598 1.1218657901199658 0 0 0
335 1 0.9049554965829338 10.669506400658925 1.2396737016263633 0 0 0
1400 1 0.09601011451159061 10.89352134504017 0.07775291575510972 0 0 0
1362 1 2.387399004445329 10.392522644163112 1.2121385050189972 0 0 0
867 1 1.5463118844175434 10.353912129727762 0.5405346411326587 0 0 0
6670 1 2.147752690614897 11.178613024554759 0.38184823815984514 0 0 0
868 1 1.5621197160742148 11.514285303370293 1.266125230724602 0 0 0
789 1 3.155403263750801 11.185974320639438 1.2091265633819153 0 0 0
6749 1 3.0431822913500715 11.035704514912762 0.008076275508345013 0 0 1
301 1 3.9340541512696965 10.784367971594904 0.6165338728703058 0 0 1
6193 1 5.072159398566031 10.453763438058466 0.32051094193248697 0 0 1
421 1 4.634631595771111 11.518791620049917 0.26348149290032513 0 0 0
258 1 4.998443772668039 11.152663091988938 1.1306516257723846 0 0 0
6673 1 5.775420839873613 11.63594522762994 0.15948652861900803 0 0 1
836 1 5.961994069481967 10.439589501866694 0.9873877794216387 0 0 0
5653 1 6.526507294545917 10.796958142420815 0.1660132798752679 0 0 1
6111 1 7.191677178331253 11.16034957252712 0.8057085770930409 0 0 1
350 1 6.291850492107898 11.482372045178561 1.0812938231659515 0 0 0
304 1 8.38840742843504 11.123339529478768 0.3326331155676022 0 0 1
919 1 8.679350585637552 11.037839619466542 1.2696389765722862 0 0 0
303 1 7.914792073003407 10.346434474990009 0.74247182831768 0 0 1
6566 1 9.139440554063286 10.426776399901335 0.35222547735011034 0 0 0
879 1 9.725867331301563 10.993887854641374 0.8702786783269824 0 0 0
5585 1 10.760272528250074 10.996874635380596 0.9969647730834404 0 0 1
6648 1 11.77078546488554 10.919296785167349 0.7313335044274061 0 0 1
237 1 12.86622687047267 11.165325191880695 1.005582080806396 0 0 0
6614 1 12.524103480423793 10.924439760273687 0.11373621997775887 0 0 0
284 1 13.365492325492266 11.494795081547128 0.11241435012521672 0 0 0
6536 1 13.874540995380016 11.177119096028706 1.0145780425596629 0 0 0
6579 1 13.22858211028777 10.322707161640993 0.39898975258562835 0 0 0
6660 1 14.397725119728719 11.030942090946729 0.1493530866859881 0 0 1
325 1 15.074825400208276 10.702031516006096 0.8115345646601969 0 0 0
858 1 14.722023942386704 11.679926837457899 0.8222727951627793 0 0 0
1347 1 15.798153069028707 11.63005668334058 0.8755823288307221 0 0 0
6628 1 16.144998731647462 10.623044004054139 0.8743878960936902 -1 0 0
415 1 16.6262738846697 11.417437641033665 0.29956144518400096 0 0 0
853 1 16.77290260696834 11.23978318090608 1.4565840848416638 0 0 0
373 1 18.727807685472904 10.283469387318444 0.8995517220763142 0 0 0
6742 1 17.552500527460406 11.039898423314337 0.6541848060630038 0 0 1
870 1 18.70797918905072 11.588325646019424 0.9703187693815043 -1 0 0
419 1 0.605968364295227 11.7394006097571 0.6284403078182764 0 0 0
1403 1 1.3901103879189352 12.554982572795277 1.2048761747163537 0 0 0
379 1 0.6311023515933839 12.899364817227292 0.2900083857211678 0 0 0
947 1 0.3260979728636212 12.475222798808444 1.3979316193100166 0 0 0
956 1 1.554991223878506 11.990998768925298 0.4043579146752175 0 0 0
6218 1 2.4703629551130497 12.080151612487708 1.0664215052601596 0 0 1
5654 1 2.361415296152218 13.071070737504812 0.8941390909269954 0 0 1
6096 1 2.541482388332018 12.16179183754023 0.09057243934343881 0 0 1
6263 1 1.7683695637490044 13.031094112947292 0.04277980528962246 0 0 1
6666 1 3.6447121151218176 11.864183052510112 0.5297789703057064 0 0 1
387 1 3.6171711791356955 13.143238382749509 1.3119366346704047 0 0 0
300 1 3.474660845680219 12.79425159092173 0.3123868465827608 0 0 0
6672 1 5.420117792676358 12.196202804342139 1.0019929123527815 0 0 1
6716 1 5.201453551461164 12.623021136396378 0.034843758419478316 0 0 0
6147 1 4.401007487257264 12.667461610357147 0.7778763777594772 0 0 1
6276 1 5.944877388949319 13.06174881617052 0.9511516530539473 0 0 1
310 1 7.1081543484513245 12.15823884022826 0.7085525766744125 0 0 0
834 1 7.060148104630393 13.098499938574019 1.018052010104631 0 0 0
6192 1 6.638423382460683 12.825980028532491 0.10935772860424425 0 0 1
265 1 7.991233327175671 11.788535331021922 1.2898737311975825 0 0 0
6646 1 8.071676895472892 12.625066496965633 0.713757118716272 0 0 0
231 1 9.95762040431778 11.736743669314071 0.15739788922873674 0 0 0
6155 1 8.900836708792456 11.942269513564916 0.7120298873296718 0 0 1
884 1 9.425915991509003 12.822284683636259 0.2653528174398031 0 0 0
309 1 9.446792348476803 12.912841543430826 1.2183609937890774 0 0 0
6110 1 10.623055032236602 12.549736154990129 0.1469331087613795 0 0 1
6119 1 11.385238981109485 12.798690718262216 0.7897102587498505 0 0 1
276 1 11.178734906273663 11.81944560356956 0.6312697016761474 0 0 0
311 1 10.30265477546688 12.160404851983055 1.0539358041898104 0 0 0
6645 1 12.35489572867479 12.074176318155832 0.16593887742624006 0 0 1
320 1 13.09281384256644 12.200222115207803 0.8648795609005373 0 0 0
450 1 12.45154727790961 12.98020253836079 0.745959161169935 0 0 0
804 1 11.99776745590661 11.787589892802592 1.3037924206174372 0 0 0
6688 1 14.055308758607893 12.452310205694683 0.4415358257623109 0 0 0
287 1 15.322716164053059 12.477127839702469 0.3574056771063017 0 0 0
903 1 14.723497208944512 12.811039659625031 1.1837505757129592 0 0 0
893 1 16.320249647207703 13.048553597869757 1.315631953308348 0 0 0
374 1 17.08648825249206 12.28905305248471 1.3393627928049248 0 0 0
6663 1 16.365795493149804 12.317309955423967 0.613209727186586 -1 0 1
904 1 17.24419485260966 13.025541069430236 0.4846466367321613 0 0 0
6658 1 17.517529018887217 11.98175752013812 0.36436484725954904 0 0 1
1441 1 18.195533477130336 12.394028937775952 1.3028997399966915 -1 0 0
1393 1 18.714103397234616 12.47857310277242 0.2764394214375588 0 0 0
378 1 0.974137657968735 14.006311812319595 0.04158797992825987 0 0 0
1557 1 0.1710946347163233 13.497239225641474 0.9667607648846245 0 0 0
418 1 0.8303913577720358 14.554629221540463 0.9896770154286533 0 0 1
6709 1 2.7813752005917785 14.058497652764164 0.9549267558010637 0 0 0
6219 1 2.6678349279626943 13.53580001594811 0.010274234235821073 0 0 1
6787 1 1.6496857438414196 13.718423991880591 0.8625460994444265 0 0 1
6182 1 2.0315161900723093 14.368684248576475 0.10782568300763447 0 0 1
6750 1 4.367448599120106 13.712955235140933 0.9873571962977115 0 0 1
422 1 3.596658368137125 13.781350971339274 0.4086866542256421 0 0 0
6712 1 4.320596160973246 14.48760189948282 0.14970481551202872 0 0 0
6189 1 5.44868838503492 13.596330470287675 0.1368671218945675 0 0 1
2012 1 5.504567116556114 14.050370880527048 1.0308495633550705 0 0 0
473 1 6.456152293561351 14.193479172745956 1.377086864438819 0 0 0
438 1 6.4996877111612426 13.958790128227507 0.39186252530196714 0 0 0
6234 1 7.586898653721926 14.01243781377767 1.1676494698450692 0 0 1
6720 1 8.594301590301429 13.451430171242716 0.7925808871384008 0 0 1
6676 1 7.400174213704301 14.458466336012789 0.21142363126357563 0 0 1
5706 1 7.555885645928386 13.382203445317781 0.17187596460452645 0 0 1
6237 1 8.372975194671566 14.295895921270217 0.25268317668406104 0 0 1
6649 1 9.162664626148105 14.264469826939061 0.9341378016410214 0 0 1
881 1 10.01804180249033 13.484821521203447 0.6401992321989478 0 0 0
965 1 9.982310193526917 14.103421240096752 1.4406427254807 0 0 0
1459 1 10.94921073791468 13.86700406337747 0.7060289220791942 0 0 0
1421 1 11.638951708400787 13.494599999881613 1.4167546016426542 0 0 0
324 1 12.160401829244678 13.960346415650076 0.5676666259141129 0 0 0
404 1 14.4109714264457 13.421359467617524 0.4072338339818102 0 0 0
365 1 13.53082395391834 13.180829887555042 0.8701198368762446 0 0 0
453 1 13.491391220910101 14.210811156587384 1.2461864937215654 0 0 0
6697 1 13.811208032933985 14.183637707939782 0.1784205563385497 0 0 1
364 1 14.679360224238938 14.28537900745861 0.8835344689771657 0 0 0
6687 1 15.479602027083459 13.570314156442537 0.7797119323284112 0 0 1
976 1 16.000663862480312 14.531507553630421 1.3768735014101345 0 0 0
6733 1 15.572706504826714 14.559820708398266 0.498567271044655 0 0 0
410 1 16.57686290837598 13.872791578533556 0.7101168556920832 0 0 0
411 1 17.45939519213626 14.249520476922164 0.8019225787535018 0 0 0
367 1 16.477886365772438 14.615352351905976 0.08192648877393209 0 0 0
334 1 17.28375105565394 13.295496280605091 1.4511870860269904 0 0 0
913 1 18.16436801233742 13.500759668802946 0.8072602428993496 -1 0 0
6789 1 0.1302491316190388 15.292948335563462 1.380859822333478 0 0 0
983 1 0.5080319259944756 15.398738815410365 0.44074842613827603 0 0 0
510 1 1.9567975068985837 14.74108481873239 0.9834103841005738 0 -1 0
6788 1 1.6887249523800814 15.736522621110241 0.5946594509959836 0 0 1
6829 1 2.735800102801394 15.487298868057218 0.7799928942022892 0 0 1
6748 1 3.6570620331499626 14.82148310244314 0.7708136848442528 0 0 0
505 1 4.022915085159261 15.78302982747994 0.9927850048932402 0 0 0
5861 1 5.743331047747058 15.754214648338118 0.4407782991711816 0 -1 1
1001 1 5.494986780199471 14.743811352319725 0.23883541501496866 0 0 0
386 1 4.672996785849292 14.84464110271898 1.082800005542865 0 0 0
1000 1 5.1411257026218715 15.764229089878615 1.3297459395626725 0 0 0
6222 1 4.651481143246784 15.42815109947854 0.2694172581595483 0 0 1
963 1 6.593676050124527 14.973655713341925 0.7010685802623486 0 0 0
435 1 6.525517422082959 15.83984938846019 1.284026931605891 0 0 0
1045 1 7.45741280265467 15.607895933042913 0.6237528646270006 0 0 0
467 1 8.19351275973709 15.092557623110928 1.0944380431784604 0 0 0
1493 1 9.925241324707319 14.705281027704014 0.53506352375781 0 0 0
6763 1 9.16269172297811 15.353082207620124 0.6873699597792938 0 0 1
442 1 10.138116280586473 15.989182675029745 0.8761398245558059 0 0 0
972 1 10.863037634084428 15.206805916482528 0.5804596334070438 0 0 0
889 1 11.821045906589884 14.929942765857906 0.8812501651612304 0 0 0
2021 1 12.91164549902288 14.878284664810874 0.56591721456055 0 0 0
6681 1 13.137748665527921 15.951577191107184 0.4569837964209519 0 0 0
978 1 12.455222884319726 15.715138304620053 1.136769204734348 0 0 0
6852 1 14.010350970558253 15.147737736097046 1.0203374959103284 0 0 1
6779 1 14.163422639990532 15.879320768674807 0.47632980023197374 -1 0 0
6771 1 14.673340382719525 15.092187700296746 0.3191380066739938 0 0 1
408 1 15.057311074407865 15.151537929668029 1.3899447741303814 0 0 0
1469 1 16.072379297702703 15.634360992679605 1.3439941099276085 0 0 0