LAMMPS data file via write_data, version 7 Feb 2024, timestep = 25000, units = lj

6858 atoms
1 atom types

0 19 xlo xhi
0 19 ylo yhi
0 19 zlo zhi

Masses

1 1

Pair Coeffs # lj/cut

1 1 1

Atoms # atomic

547 1 18.901016388526834 0.7651217056357493 0.05125549944021561 -1 0 0
6823 1 1.1637830728271263 0.8069829707262325 18.975292279250876 0 1 0
5 1 18.796761302399297 0.41653537218228737 1.179577286614505 -1 0 0
6347 1 2.2026579940791695 0.8003788989356448 0.3121551574599804 0 0 0
994 1 1.6042888939054918 18.953524373991293 18.921327550741623 0 0 -1
6355 1 3.081417821897515 0.8332696998699181 1.014535132840015 0 0 0
550 1 3.6932071742643044 1.2298165027111227 0.1984489659692924 0 0 0
50 1 3.6025529910798135 1.8175298123696464 1.0325315465826395 0 0 0
1001 1 3.377578484731985 0.40664548411528273 2.060570018038598 0 1 0
48 1 2.169755576872606 1.201072612837426 1.4925695396666576 0 0 0
6800 1 4.732260408739247 1.4961909091728953 0.7139285969466482 0 1 1
5948 1 6.380020116587375 1.2267124850882127 18.98952343456995 0 0 0
607 1 6.038325460055374 1.0685073177670006 0.9572241552458263 0 0 0
6318 1 7.019439468504423 0.29525156632401506 18.65989043197628 0 1 0
1122 1 6.939516052954573 1.7388136048174192 0.9982519459460668 0 0 0
644 1 6.911104354947013 0.5443478216343782 0.5821200727829607 0 0 0
62 1 7.859117146153757 0.01921386941034362 1.324430509374732 0 0 0
600 1 8.779913087173773 0.08320298934293634 1.6478831166325234 0 0 0
5864 1 9.880539059432724 0.6137403782506684 1.176232926190689 0 0 1
603 1 8.906029386933831 0.5653191879350209 0.7453204463762704 0 0 0
522 1 11.790726196798023 0.04001700830342201 1.714474954206882 0 0 0
6850 1 10.774474412730552 1.1359269669132475 0.2954901653335219 0 0 1
6374 1 10.534391046623279 18.970847548192054 0.6490384327264046 0 -1 0
5783 1 10.738486269438733 0.38163645154559733 1.639447458342348 0 1 1
1667 1 10.390683833632712 1.4823642854863932 1.9214722189415328 0 0 0
70 1 13.582385131689808 0.5594413966493165 0.3894104784653938 0 0 0
560 1 12.71518689721198 0.33070990464611005 2.0531997366848374 0 0 0
116 1 11.149536239764462 1.2482281846700185 1.3210558550433993 0 0 0
71 1 11.363833101639027 0.4342114603386249 0.8418048309367644 0 0 0
6335 1 13.386388747840051 0.24937396632166553 1.329624732510795 0 1 1
6539 1 14.589012116903332 2.0102519423643055 1.0654181640427993 0 0 0
5873 1 14.58533489411897 0.8256897566308093 0.8402842033879669 0 0 1
76 1 15.210913488104723 1.0905991870787641 0.17256002332585332 0 0 0
37 1 16.360705755282563 1.9532459556593562 0.20860834831557043 0 0 0
38 1 15.5290729303257 0.8114763222511054 1.3606298033222757 0 0 0
1601 1 16.597261465739532 1.2287346480402668 1.0874241201211758 0 0 0
6300 1 17.044931542166065 0.20541150700735727 1.297338458088274 0 1 1
88 1 18.712646257101603 1.5357922549233942 0.8511794978729822 -1 0 0
576 1 17.747101313546647 1.0210873433104248 0.8867803296541775 0 0 0
2 1 0.7962068472542752 0.8413349286221593 18.02649147934654 0 0 -1
492 1 0.5137355834400621 1.6062568260730719 0.05513696421823182 1 1 0
127 1 1.7060172391272292 3.4949068380425317 18.72827018637331 0 0 -1
1562 1 0.5315781469460716 2.1425560200053657 0.9632518168049307 0 1 0
554 1 2.6481264883349915 1.6577391119526907 0.4804933375020999 0 0 0
6518 1 1.728816184542109 1.527802265037993 18.688354985061608 0 0 0
666 1 1.3736258887070067 2.705667347242566 0.3285756522647961 0 0 0
513 1 3.224901007483244 2.5668397359663055 0.5574721747871652 0 0 0
5941 1 3.3785303314126427 2.2116704753914607 18.554020035015782 0 0 0
506 1 4.0927017880985606 2.337991741175518 0.24954085655838817 0 0 0
635 1 5.033370655627634 2.5562711574453725 0.6948193504129551 0 0 0
133 1 4.843882426303223 2.23346881948731 1.6515726454625703 0 0 0
6556 1 4.994172634778052 3.2598159853164628 1.4803882836201547 0 0 0
6474 1 4.687855985801557 3.338241130588048 0.051911293099678 0 0 1
507 1 5.612136473856024 1.8809003202358308 0.422930464645722 0 0 0
99 1 6.500816128218234 2.2315260449452583 0.29145047151870623 0 0 0
6449 1 6.983665099679486 2.8747619586354847 0.902304834679927 0 0 0
140 1 5.957385922981669 2.0973476801552176 1.3206801458429978 0 0 0
6443 1 7.833270896509118 2.5395543785344827 0.39797701769993793 0 0 0
5382 1 7.923595544324581 1.2338361031651235 1.1241862799564146 0 0 1
67 1 8.546587618015657 2.5200846928399514 2.245730053096676 0 0 0
5869 1 9.639728987456643 2.2229593118552256 1.7639839640179644 0 0 1
1592 1 9.26848219941008 1.4722486655993154 1.1055059366189808 0 1 0
5419 1 8.573882676150868 2.1496886727115125 0.8389254053017843 0 0 1
63 1 10.263317422348118 1.8582056833749399 0.8862776886690119 0 0 0
103 1 10.603360416563868 2.626415335713054 1.5878114527820761 0 0 0
199 1 11.33619517525777 1.9959252425664387 0.6744243377837535 0 0 1
651 1 13.799758352098475 1.1841553343863058 1.4802940711588872 0 0 0
198 1 12.846848892995979 1.0318755187596524 0.9694025616803225 0 0 0
6576 1 12.373870049171865 1.8764283628270424 0.8438401377039758 0 0 0
75 1 11.901560794861023 2.433372168377687 1.6644983381034606 0 0 0
6373 1 13.756864261482104 2.910599459767198 1.3115005450158803 0 0 1
72 1 13.550786630155411 2.0533831574034216 0.7981197509632073 0 0 1
154 1 15.349811628390318 2.4789973510649634 0.4300351459157034 0 0 0
5968 1 16.736446966485275 2.15318812096449 1.3922671369387452 0 0 1
1021 1 15.536017585509894 3.409986190605202 0.6048777365278735 0 1 0
6375 1 15.658851422660007 1.703094974904189 1.061857438451881 0 1 0
113 1 14.765323699517907 2.9895528539559884 1.3452946464158173 0 0 0
5841 1 16.603217838359356 1.8005808874618963 2.3130693762273675 0 1 0
536 1 17.904519529493378 1.949567343241441 1.266315094564722 0 1 0
654 1 16.512304904575494 2.988629300393179 0.6832360589501024 0 0 0
121 1 0.013441003329993362 2.8987158695228925 18.37477192185129 1 0 -1
78 1 17.566175968587615 2.40200729750526 2.187730361751854 0 0 0
544 1 18.487177452681884 2.495902768473248 0.4505945167712102 -1 1 0
6396 1 18.045857195647653 1.6397986196290562 0.10988569141823396 -1 0 1
5313 1 17.83512484971932 2.9733554442426433 1.0976055362198263 0 0 1
42 1 0.33694826607506856 3.12703223102752 0.4966259697663524 0 0 0
5495 1 18.99674166819502 4.0961721083075044 0.24898188953536882 -1 0 1
631 1 1.5182418910055508 3.8757682143569085 0.7246914584831159 0 0 0
6438 1 2.3279040383530036 3.187367443224704 0.8754125024818066 0 0 1
5888 1 2.403029653504573 4.127543908835964 1.289941510837939 0 0 1
1247 1 4.050704258206772 3.055629844530138 1.123761584743222 0 0 0
6555 1 3.2036177545192013 3.8231453322319866 0.5320269152471832 0 0 0
676 1 4.377437245760594 4.119087547561089 0.8536663062353402 0 0 0
5986 1 5.394249757869268 3.8242451596433558 0.4994970281295332 0 0 1
97 1 6.02625053455035 4.1494506915376945 1.322829198439527 0 0 0
5376 1 8.05674324622187 3.0888501094681327 1.2479425494405627 0 0 1
719 1 6.001826169642767 3.11526397424657 1.0349218278306718 0 0 0
190 1 5.9489649683613495 3.955481900896609 18.536006768830706 0 0 -1
5374 1 7.042799895681528 3.01091891569847 18.889306230178786 0 0 0
141 1 6.534930067677752 3.7008000673480694 0.4025799832220831 0 0 0
187 1 7.583001732648442 3.8277308638796512 0.2501674733437306 0 0 0
565 1 9.260537321566092 3.2210402576277497 1.4901101432560957 0 0 0
5989 1 10.192577488553088 3.9223213771960888 1.0990616404336224 0 0 1
6447 1 9.432717818504653 2.7203014809478647 0.6925626941454095 0 0 1
684 1 10.312037462846236 3.0035704443542492 0.7290670207371115 0 0 0
730 1 11.267454013086752 4.010140316751991 0.6977991341215137 0 0 0
200 1 12.291912872440669 3.9497197982371555 1.2594686023912054 0 0 0
5962 1 11.496858048122967 3.045098972085879 0.8765346871042001 0 0 1
73 1 14.237673969947304 3.650303077712089 0.6108898443906202 0 0 0
152 1 12.632274811666779 2.970787334724001 1.2051649533415758 0 0 0
6537 1 14.275153474914797 4.646022742761663 0.8391947305924181 0 0 1
117 1 14.186909357691224 3.7808709924723125 1.8644830696899468 0 0 0
36 1 16.313019933138925 3.7346096039766485 1.3228885739558898 0 0 0
5971 1 15.771452303967372 4.522787375712418 0.8138188179034276 0 0 1
701 1 17.055459028180717 3.240152513653478 1.7051014910685962 -1 0 0
6453 1 16.477485574357136 3.940768647099536 18.925353103727304 0 0 0
659 1 16.758857979992634 4.170250317804001 2.2330389369130077 0 0 0
6392 1 18.6895378660865 2.5033146769356023 1.625512930044088 0 0 1
115 1 17.204927575886646 3.87782749072412 0.6611612370685592 0 0 0
660 1 17.60166096996018 4.087278500996796 1.5900890695266654 0 0 0
6384 1 18.085863845664775 4.289164311805519 0.7011235533495362 0 0 1
707 1 0.8453727706823082 5.509264559631548 1.0942285946713473 0 0 0
6012 1 0.06193935069407202 5.649942391631341 0.17229756961268716 0 0 1
6581 1 18.937409494382308 6.008173334014579 1.114293187250996 0 0 1
625 1 18.956279593568077 4.981443845902955 1.0214814357468296 -1 0 0
126 1 0.7918508711684114 4.653408753611523 0.5528178157630894 0 0 0
41 1 1.424319431371847 4.634454487674601 1.322200733275316 0 0 0
1113 1 1.6569700762252595 5.323528916306949 0.47541402697425816 0 0 0
6349 1 2.550303124283359 5.155948482486869 0.8484642995870021 0 0 0
6436 1 3.5842574680687638 4.705903974038442 0.9049621856405198 0 0 1
1206 1 4.174331222444539 5.084817767637328 18.836302217919442 0 0 -1
6015 1 3.3614204962035954 5.761837252932116 0.36477733974282234 0 0 1
6521 1 5.187280901290554 5.434967727861126 18.786052474174475 0 0 0
6524 1 5.808642886396011 4.733885664620647 0.3321981404290327 0 0 0
5450 1 6.008561767119751 5.722412724583938 0.379015282475826 0 0 1
6529 1 6.829424272686322 4.723502601861623 0.5853818381810031 0 0 0
266 1 6.4798527245806214 5.172889211603375 18.57695310488162 0 0 -1
276 1 7.817582440288002 5.561652206999054 0.6938099491911919 0 0 0
805 1 8.580299014331711 5.727171178339895 0.13526640800635098 0 0 0
6487 1 7.821721311014367 4.600092186509588 1.2390481704091851 0 0 0
1290 1 8.744352303437811 5.3616985668554245 1.0924907300263826 0 0 0
6486 1 8.989623369442594 4.451682568758684 1.315179319760005 0 0 0
5955 1 9.805402900924955 5.192391322038221 1.3423963248725013 0 0 1
4927 1 10.066336128751674 4.7296376088560175 0.4320857959343914 0 0 1
729 1 9.822090215586039 6.109471131267992 1.4481655350826117 0 0 0
5458 1 9.681075368488218 5.670516975541683 0.4937768484978885 0 0 1
106 1 10.792495941714634 5.126911123561952 0.9825830308753786 0 0 0
5993 1 10.68493699794557 5.63698197013712 0.09488080154686747 0 0 1
5915 1 12.315648459351376 4.667740816861711 0.4958956670753897 0 0 1
723 1 11.684850140629463 4.8521772339114415 1.2498760977991987 0 0 0
771 1 12.50809017963745 5.753398729557026 0.8860807338235979 0 0 0
66 1 13.298776953232034 4.103241266316021 1.0360239494252486 0 0 0
201 1 12.99788290396589 4.1362713013079935 18.94025003171795 0 0 -1
1220 1 13.337288612139881 5.03544152372091 0.4912043735521468 0 0 0
5963 1 14.4194205935358 5.776065755028797 0.9178817968787777 0 0 1
156 1 13.818998239188591 4.699473056468144 1.7885289293185993 0 0 0
6046 1 15.486892295345779 5.220492829059826 2.3782847409617727 0 0 1
5965 1 15.019725191514933 5.133582793849654 0.37265759064388854 0 0 0
6502 1 15.838881761583481 4.376205554423405 1.9233028977844167 0 0 1
153 1 16.815347096389885 4.741546338920544 1.2380715247633856 0 0 0
6467 1 17.197946525828815 4.871946999081615 0.35528797086520775 -1 0 1
6541 1 15.987780319778551 5.439923617832662 1.354425676894624 0 0 1
87 1 16.816129204323097 5.737774468048612 0.9486114192725851 -1 0 0
166 1 17.933345976433007 5.430032382101551 1.1511608125978265 -1 0 0
43 1 18.256864314849352 5.140090203791324 0.01745877419289106 0 0 0
5932 1 18.119370535081643 6.133866520953462 0.46313166181303705 0 0 1
210 1 18.13194920905231 6.384057334961642 1.506840340422487 0 0 0
174 1 1.2481243848825239 6.301272894036046 0.3834088222330553 0 0 0
93 1 0.9237393240047389 7.240506240459638 0.6843287189147462 0 0 0
347 1 1.0642413816355618 7.0173140921456305 18.531293697712577 0 0 -1
748 1 1.486152375674181 6.3878971718637265 1.4035841662184612 0 0 0
6507 1 0.06606103646795534 6.613973744152228 0.2673511890932567 0 0 0
6398 1 3.126105022248127 5.687538536571033 1.6121763524507093 0 0 0
1235 1 2.537007009352034 6.137802318582864 0.6697623925614643 0 0 0
789 1 1.8984196852760966 7.044860427174332 0.5031321717623636 0 0 0
6599 1 2.8502359627210425 7.386196815554327 0.6246264030380672 0 0 1
132 1 4.660131583842736 6.930407481110345 0.7134112128386033 0 0 1
128 1 4.335804140352383 6.002316354100941 0.23801965988950294 0 0 0
299 1 3.564307536074756 6.639328948843215 0.6869855850887663 0 0 0
6512 1 4.0304111125525015 5.560456998373013 1.1416747385766626 0 0 1
716 1 5.035419003137332 6.048747205006909 1.0777026929439588 0 0 0
6598 1 5.778098139530577 6.894778034672121 0.8818302080008801 0 0 1
1286 1 5.257121820119134 6.537133719574597 0.003118618802772729 0 0 0
6639 1 6.822790155458102 6.59145140859367 0.9410874891540769 0 0 1
6562 1 7.093928970337284 7.516908000658088 0.6118913229316189 0 0 0
6561 1 7.010571236577551 5.8736748227498286 0.13760768348000565 0 0 0
768 1 8.929724862137522 6.380258017632993 1.041432877505426 0 0 0
6480 1 8.076574495706058 6.856725569172937 0.27467716029070416 0 0 1
5423 1 9.72959519307386 6.679781973810578 0.4744859499715387 0 0 1
5912 1 10.35781892321118 7.269681257060996 0.986672129383671 0 0 1
6532 1 10.771186980073072 6.220745729157426 0.9078953715711081 0 0 1
848 1 11.410889392232837 7.107015202720251 0.993607369255742 0 0 0
101 1 11.656629100288942 5.531927658328965 0.4451037359587536 0 0 0
6530 1 10.81898886185256 7.298680080924384 0.07480484094750481 0 0 1
282 1 13.365612734804046 7.692934887285129 1.876757187161593 0 0 0
5867 1 12.940958475568568 7.3980027620577955 18.879539683093412 0 0 0
6034 1 12.353496243118375 6.579411757552255 0.41313830116702577 0 0 1
236 1 13.28449328168819 7.395610109192987 0.9938698523263806 0 0 0
237 1 13.578771573780287 6.4124100565846724 0.5963107808702949 0 0 0
6618 1 15.216697444631802 6.153582036972757 1.8060511003104929 0 0 0
6086 1 14.206213201815565 7.32065152282377 0.6276952782924332 0 0 1
246 1 15.210790130849784 7.01897841149704 1.1263916064544062 0 0 0
1262 1 15.333125821695553 6.079224894319983 0.7835485704668924 0 0 0
202 1 16.137290244402 6.524107914358541 1.3594961212581032 0 0 0
160 1 14.643007823903389 6.528246359469572 0.12688998678472435 0 0 0
6011 1 16.26702059510107 6.310672186525733 0.4250526852096352 0 0 1
6583 1 16.04314558626804 7.299046749103439 0.5700459178815518 0 0 0
213 1 18.937985227982022 7.196346707270131 1.28512388174294 -1 0 0
6508 1 17.192985055911755 6.791536997970328 0.7662273505689782 0 0 1
668 1 18.24506290487698 7.273536152221368 0.4132048674559007 -1 0 0
6594 1 1.1540581321987435 8.022650983603143 0.02295637575609006 0 0 1
6550 1 1.6768318932842545 8.234474732841258 2.0915562274305928 0 0 0
743 1 3.275120193075317 8.473801471354045 1.0383864159564684 0 0 0
744 1 2.063873255427902 8.13769032980808 0.5079344606496922 0 0 0
1766 1 3.814519236888998 7.635204741360537 0.7840433707519197 0 0 0
1851 1 4.321868936473242 7.6673610752458465 1.7220911798894463 0 0 0
760 1 4.713462921919886 7.849723926020553 0.0993415923483044 0 0 0
1279 1 5.380624296520927 8.629640424099126 0.06468993333314144 0 0 0
222 1 4.716369322025062 9.453397448690906 0.24747190235942707 0 0 1
1327 1 5.096770026152879 7.770435667141337 1.0253927470290383 0 0 0
265 1 6.163284597135699 7.866292300492997 1.1642250046842448 0 0 0
226 1 7.081856273111449 8.357766865807477 1.482927791349168 0 0 0
1285 1 6.101320497139057 9.284010220121132 18.730015434101105 0 0 -1
6571 1 6.472349379961115 8.22268275612872 18.981995741179627 0 0 -1
6115 1 8.02323656423794 7.6750578401634355 1.2911161889038376 0 0 1
279 1 7.725106408198682 8.426966845771085 0.6036567654097457 0 0 0
6648 1 8.795634075145657 8.314377662401368 0.8020407404180437 0 0 1
6489 1 8.80022658844766 7.517681658683972 0.08888476608305809 0 0 1
6606 1 9.064851256360406 7.370137440255983 1.0526027554591413 0 0 1
5990 1 9.932802807357007 8.194810798778882 0.6479721483733707 0 0 1
6565 1 11.036049296745835 8.240027506888973 0.4990247606083901 0 0 0
5956 1 11.658369209780764 9.03438362297251 0.08922605019628209 0 0 1
732 1 11.307482029727195 9.184183060838917 1.069820059633012 0 0 0
287 1 13.555343360376236 8.147875133826917 0.4496118694558725 0 0 0
238 1 14.178316610126801 8.906631843843888 0.9982584605228896 0 0 0
858 1 15.178326145630239 7.909810618215007 0.44305813884702877 0 0 0
336 1 16.654432987621213 7.452545460122149 1.3831878904472208 0 0 0
6094 1 15.088901284379467 8.110587302732839 2.3242457339844314 0 0 1
6542 1 14.380784328479406 8.600101359018284 18.95263161857098 0 0 -1
6053 1 15.37339524286076 8.786692644137425 0.012395521812563284 -1 0 1
209 1 15.883839036635859 9.025331392368322 1.0712511220576026 0 0 0
779 1 17.224025069729407 7.836634456508922 0.6671117807732464 0 0 0
740 1 17.04830375630555 8.560965619631695 1.3775256453950462 -1 0 0
6504 1 0.009084817391102007 8.947454041284072 0.12565444995022454 1 0 1
162 1 18.129190375622347 8.419110899837841 0.9002848985488274 0 0 0
244 1 0.44300279908969764 9.000451628502127 1.3031672448193545 1 0 0
1391 1 17.412527206720362 8.60229103726914 0.05626597726645543 -1 0 0
6059 1 0.24770412062817596 8.090038409484219 0.8972575196813927 0 0 1
207 1 1.0101614430571917 9.179010125935632 0.23015783294192987 1 0 0
254 1 0.030396461369314266 9.924729301689233 0.7066311090837495 0 0 0
712 1 2.172752220854665 8.93790614781483 1.3213466491738783 0 0 0
5977 1 4.362336378781691 8.509377976676506 0.9344749056230146 0 0 1
216 1 2.034812173938979 9.829663771802231 0.6220795091683137 0 0 0
177 1 2.867465324678431 9.339952041565837 0.633060908328002 0 0 0
221 1 3.0046364087115647 9.501641941419042 1.693191687986571 0 0 0
782 1 1.194440857774969 9.0225873577814 2.4778281753626117 0 0 0
302 1 3.7852435396590987 9.452433347400365 1.0470419128266177 0 0 0
348 1 3.883969101036019 10.478966252575976 1.4933360072823303 0 0 0
427 1 5.319811628498985 10.519582641582133 0.27600707778856093 0 0 0
227 1 5.314884201700027 9.83310729499023 18.457919653450187 0 0 -1
756 1 5.268648372743618 8.960238228803336 1.0989936122599628 0 0 0
2419 1 4.780608185089065 9.847008758517974 1.2208079410427821 0 0 0
315 1 6.305334203162472 8.885598472808624 0.8913326765293494 0 0 0
837 1 6.837548033876937 10.125728051073974 1.031072364252526 0 0 0
6640 1 6.251718750953912 10.23751767481294 18.774108758219345 0 0 0
188 1 7.142148753752588 9.179756611564821 0.013942502473053812 0 0 0
263 1 7.002855483536631 9.816308610761611 18.244403423675895 0 0 0
6644 1 7.482211129607398 9.437830227472533 0.8899856389514029 0 0 1
6650 1 8.562655652130296 9.337083577838012 0.935445762712449 0 0 0
324 1 9.406115029282477 9.932992348454242 0.8648931295043143 0 0 0
808 1 10.16495597306922 9.813326802731584 18.695959442818825 0 0 -1
1335 1 10.35929433081407 9.267188627874736 0.6523823585785639 0 0 0
770 1 11.833745484385082 10.084471243185666 1.1222659140910265 0 0 0
812 1 9.893792936721946 10.680867519648649 18.22454717167079 0 0 -1
1381 1 10.221038322720634 10.56510101343183 0.26825427751315745 0 0 0
893 1 11.68257408555996 10.879270585142338 0.010595629387115224 0 0 0
6654 1 12.615741331292197 9.073331895091044 0.6204172055103163 0 0 1
6210 1 13.30092914457443 9.872691799834875 18.592797506376186 0 0 0
5999 1 12.182728051692823 9.995587423809425 0.038219976242565526 0 0 1
328 1 13.053947854151204 10.098323141117314 0.5930021566716664 0 0 0
325 1 13.320231353956622 9.373602111508184 1.252758801731294 0 0 0
288 1 13.50286335742726 9.0897627444031 0.26702577497647206 0 0 0
291 1 14.997956363359277 9.75161056778881 1.0823022278759742 0 0 1
1393 1 14.762506176044141 10.575214060332792 0.211821446588196 0 0 0
1434 1 14.588971623122251 9.5599610214485 18.99480752729066 0 0 -1
370 1 15.511125568638395 9.97036435836667 0.08677288183179618 0 0 0
247 1 17.173010705105984 10.393136075884257 0.37444023083862116 -1 0 0
329 1 16.461984579582907 10.095774923897824 1.1466123563290664 0 0 0
337 1 16.57838291396889 9.51051815004638 0.32487721130252534 -1 0 0
1350 1 17.419893947763974 9.534421414150266 0.937965642185883 0 0 0
787 1 18.26677560145465 8.414186904045271 1.9053699132940123 -1 0 0
825 1 18.147700304563656 9.502317129272996 18.92688814163813 -1 0 -1
1435 1 18.144045162905837 10.33019300131402 0.6135826874760826 0 0 0
6663 1 18.404774998557492 9.381699942264845 1.3996956302146024 -1 0 1
861 1 1.0700173471907803 9.815305673068517 0.9601242656908588 0 0 0
6141 1 1.3554341162133448 11.696098771015947 0.643042600033336 0 0 1
1368 1 2.663935153578911 10.297419738922063 18.931607333842706 0 0 -1
751 1 1.5525600968778561 10.682370884475928 0.7462964076108514 0 0 0
866 1 3.7253490455116616 10.184070045210008 0.2967537388124564 0 0 0
300 1 2.9490870681154346 10.464069938171923 0.9948616000471961 0 0 0
1360 1 4.444297237767351 10.923665840650223 0.6715120052889991 0 0 0
1971 1 4.204812782394276 11.932489995045776 0.5926522751315575 0 0 0
384 1 3.678803992779331 11.282100050402041 18.995324436887657 0 0 -1
1329 1 4.7389516289024565 11.581361137414678 18.817073751433103 0 0 -1
387 1 5.479048632700351 11.436418323741385 0.5725601463666723 0 0 0
765 1 6.1708514652700455 10.857230779540272 0.7327383866815047 0 0 0
6603 1 7.107682154601353 10.48359731203448 0.1294992067870877 0 0 0
792 1 6.157252898442305 11.368903290163418 18.84630310121722 0 0 -1
6720 1 6.212934714228753 11.508145843678168 1.5951567036014345 0 0 1
303 1 6.771395701144179 11.815345739501742 0.6992409761584112 0 0 1
800 1 8.08331207607173 10.936385402675812 18.96470059763583 0 0 -1
799 1 8.423190449963116 10.321633731255906 0.7577587688091868 0 0 0
1337 1 9.156722809015928 10.862747285688323 0.18031381030986085 0 0 0
885 1 8.605228837131001 11.313667242178783 1.05859044863872 0 0 0
305 1 9.662889742938017 11.694070005953794 0.35828452611757244 0 0 0
6717 1 9.456535329978923 11.929315587289874 1.389176308504843 0 0 1
322 1 10.35147372223357 11.617477395614117 1.0962475752217966 0 0 0
883 1 11.026936486081384 12.411022578616587 0.4978368166497209 0 0 0
313 1 10.72055557842071 11.41286283185326 0.0025835631324220287 0 0 0
6119 1 11.450663855175266 11.94688825931473 18.489441927769416 0 0 0
6619 1 12.457891131166184 10.843013506204322 0.7883551950019343 0 0 1
6688 1 12.62808655111509 12.076127535499117 0.3402122820977321 0 0 0
5671 1 11.690942657303127 11.639600711607955 0.660892796974569 0 0 1
1343 1 11.020205834906637 10.867419125948674 0.8941975056926394 0 0 0
1338 1 13.883838728482653 10.687400492248804 18.68454962346322 0 0 -1
450 1 13.558041059409248 12.385427575748178 0.7091093372571028 0 0 0
980 1 14.453738468726998 11.653028344620106 0.35337415799448413 0 0 0
6700 1 15.578971079587642 10.576136633566025 1.015047011971602 0 0 1
6738 1 15.29536674457123 11.666771923436118 0.8362691370755513 0 0 1
6097 1 15.587133442254208 11.08887061982229 18.990207503124854 -1 0 0
1953 1 16.486785757519353 11.124478044980213 0.5117939539431874 0 0 0
826 1 17.463224390880114 11.024738897183443 1.255096751582183 -1 0 0
6747 1 17.68946365512701 11.406179077598452 0.2537442064132158 -1 0 1
1390 1 0.5212895802406501 11.032716794578363 0.72412873676014 1 0 0
6638 1 0.7255768345551267 11.33416602635998 18.597124026177447 0 0 0
6586 1 18.704854941654208 11.02022941438228 0.03192950705941438 0 0 1
6670 1 0.8606952535588993 13.487001772396274 1.0560102937575737 0 0 0
1280 1 1.409290693568196 11.825001855072344 1.677522092467552 0 0 0
294 1 0.4242051277229656 12.893058765116404 0.22459546687323179 0 0 0
957 1 2.115339557362635 12.047115577898966 18.921782036855515 0 0 -1
1405 1 2.4654742483161685 13.28337204257251 18.861353536219724 0 0 -1
6794 1 1.5377228262940752 12.79119582232103 0.5211627468779311 0 0 1
345 1 2.6460581904673983 11.304067670262866 0.4915426696511996 0 0 0
833 1 3.0830488393447424 12.156737293462475 0.1534691060864431 0 0 0
715 1 5.525160844388376 12.118572700716284 18.636889499931076 0 0 -1
6633 1 3.9817497491961262 12.907129821119742 0.308006361851209 0 0 0
1404 1 5.005379826977725 12.615842203307206 0.40073668308009475 0 0 0
353 1 5.415333982454831 12.50755063615134 1.377304282789514 0 0 1
835 1 5.380915073160046 13.430930969518219 0.6300242419333844 0 0 0
996 1 3.6505870993893543 13.317742440581014 1.3211275620069982 0 0 0
924 1 6.135542066659195 12.671347163168091 0.4505561695698176 0 0 0
356 1 7.7288424268587175 11.763643821833586 0.5753360401500074 0 0 0
1488 1 7.216801365529398 12.785413945296312 0.7181848147636064 0 0 0
395 1 6.774010885365357 12.311562671108453 18.7386816518934 0 0 -1
6646 1 8.269079827913528 12.613830231029892 0.76421942420792 0 0 0
277 1 7.934743554685524 12.544573893425907 18.660411160567783 0 0 -1
6195 1 8.557935537502706 11.773173759166394 18.992645198450592 0 0 0
844 1 9.901257094712236 12.87086784818338 0.3544275358321807 0 0 0
6686 1 11.454355313552178 13.302265004484191 0.7684741803758944 0 0 0
361 1 11.179403858749424 13.032628083554563 1.9995357203287902 0 0 0
6681 1 11.922701041387974 12.5490085345764 1.1111771793282466 0 0 0
979 1 12.80914941710525 13.145883591517958 0.713467921242481 0 0 0
6203 1 10.84884600116563 13.037560852480349 18.708950789279147 0 0 0
368 1 11.956036165188618 12.877221583934393 18.965509559005945 0 0 -1
372 1 13.91307678073017 13.114273537801676 1.5794665813205413 0 0 0
452 1 13.181579162471236 12.74341078865908 18.753457108627547 0 0 -1
901 1 16.917194319202274 12.008254940494192 0.9483348644399794 0 0 0
338 1 14.884086088562004 12.5440614568925 0.8274880145958649 -1 0 0
454 1 16.020689614883413 13.230054201810361 1.423118925923628 0 0 0
376 1 16.017730750334408 12.536831236764126 0.6986422517135263 -1 0 0
6659 1 17.89852335851658 12.03234928770666 1.4290058748068972 0 0 1
855 1 16.93722245392111 13.372378608534044 0.7467582775358512 0 0 0
373 1 18.494159438720327 13.167966675563363 18.995953597253525 0 0 -1
456 1 17.716440613406988 12.875749489619038 0.7896500855127426 0 0 0
413 1 18.5095821850921 11.314062392378453 0.9581837502318841 0 0 0
904 1 0.2951004528215818 11.880955493055158 0.3734826139633813 1 0 0
383 1 0.9453112748259301 14.468465047438333 0.9386344049688714 0 0 0
6705 1 1.3095610731163223 13.5616180506999 18.841931797874377 0 0 0
379 1 0.910574640330326 14.682042020594954 18.94880946830914 0 0 -1
301 1 1.8497814649955138 13.881549082080282 0.629517962852989 0 0 1
868 1 3.8707063059561775 14.609092388940882 18.600771943261265 0 0 -1
6672 1 4.49691117541704 14.080044265991033 0.47509667400582845 0 0 1
1961 1 2.7218041767057026 14.425753450147921 0.9190944036053932 0 0 0
432 1 3.5560906957425367 13.785721766826853 0.4620027259473216 0 0 0
1402 1 5.121831087940513 14.929728944071591 0.2337348517981255 0 0 0
921 1 5.59278875653949 14.451584924266099 1.418199614879918 0 0 0
6799 1 6.028268747970206 14.29349238216045 0.5348577172099782 0 0 0
354 1 6.991275880355507 14.674142457448715 1.2269475066452178 0 0 0
1527 1 7.418676738601671 13.83070618568432 1.0740918652960862 0 0 0
470 1 6.107850684976333 15.35351983355727 0.5387175457005018 0 0 0
438 1 8.491706584253443 14.81264222796547 18.63296884059833 0 0 -1
436 1 8.62459061421981 13.838488413572945 0.9083441822919235 0 0 0
6239 1 6.563313933902419 13.511652049006397 0.12998552836023533 0 0 1
1499 1 8.896293176043617 13.370037316900904 0.13678428299799422 0 0 0
1541 1 9.712802177420725 15.426756204536199 0.04318414684688096 0 0 0
394 1 9.30647487828991 14.46712582469108 0.28516792186780626 0 0 0
391 1 9.01833189207458 14.674571674112487 1.4762990333240653 0 0 0
881 1 11.131252308300892 14.070721527074395 0.20340319755707076 0 0 0
886 1 10.69584992344344 13.837030119499294 1.1890304535667686 0 0 0
405 1 11.439782630237996 14.739207986617165 0.9578553087624933 0 0 0
931 1 12.204675812278953 13.901907176648603 0.27110913153510846 0 0 0
399 1 13.26792181982648 14.192581500593842 0.3355892315931298 0 0 0
6683 1 11.983735442211627 13.53231435990928 18.176362036353655 0 0 -1
6083 1 13.92141530220166 13.370366512916215 0.5035167093247371 0 0 1
6733 1 12.199362836736912 14.899751568154649 0.32587999656204775 0 0 0
1982 1 14.344753539978637 14.530820258171117 0.9519683413333728 0 0 0
400 1 15.936316918672174 13.737252612246591 0.36281900284775775 0 0 1
453 1 15.069881837779256 14.95948786441717 0.3246690072621887 0 0 0
1508 1 15.42993669178533 14.352770335655622 1.0730781822214737 0 0 0
1440 1 16.11049259245406 14.953902563081217 0.5925274924895862 -1 0 0
488 1 15.04366440243107 13.444324080853479 0.2980797499989899 0 0 0
3049 1 17.001721509838195 14.412669773486114 0.563266679707824 0 0 0
1433 1 17.31568927747338 13.90496507755986 1.5636062620478626 0 0 0
486 1 16.32157916688434 14.171867869669077 1.414563606519525 0 0 1
908 1 18.90395992225946 14.69750016411985 0.8487536674594041 -1 0 0
6703 1 17.907790769835447 13.858154884097623 0.736668576598046 -1 0 1
1437 1 18.815812963869163 13.51163121994349 1.0454110179914384 0 0 0
5642 1 0.10814155941508896 14.021008644655023 0.12214641838457825 0 0 1
6193 1 0.777850057881687 15.471624727968745 1.0662475562953657 0 0 1
1959 1 1.321085401033609 16.642078911320873 1.5092107050162427 0 0 0
1519 1 1.731392356198159 14.975543070712572 0.5814194154222646 0 0 0
6745 1 0.9320530473251246 15.856318313398402 18.822337810721294 0 0 -1
460 1 2.8042224939202103 15.245504182418502 0.1994287412539108 0 0 0
913 1 2.234504949091852 16.38831278723678 1.7792159611586016 0 0 0
1515 1 2.9813897163837426 15.697607088950756 2.4926008180660495 0 0 0
6787 1 2.932843860679419 16.6350853488884 1.0934653934746288 0 0 1
472 1 4.347258455352478 15.846242046456206 2.2546376179549075 0 0 0
6798 1 3.564575831332881 15.984306033311933 0.5732287306114338 0 0 0
6755 1 3.5086269588836005 15.571215090395286 1.5470069049007384 0 0 0
958 1 4.492082482179539 15.00925461641482 1.3687342530248783 0 0 0
466 1 4.425350151756283 15.626035374548215 0.2599301575970101 0 0 0
961 1 4.494029545019051 16.15189720618653 1.1370296292510145 0 0 0
966 1 8.09397597274418 15.454618317533283 1.3170473375240592 0 0 0
1006 1 5.572603503264673 15.765386242308272 18.819940102458492 0 -1 -1
6802 1 6.830553726128144 14.79963540318186 0.2055010161271706 0 0 0