LAMMPS data file via write_data, version 7 Feb 2024, timestep = 25000, units = lj

4912 atoms
1 atom types

0 17 xlo xhi
0 17 ylo yhi
0 17 zlo zhi

Masses

1 1

Pair Coeffs # lj/cut

1 1 1

Atoms # atomic

433 1 0.2533386761470697 1.1554415007216365 0.8489521056009541 0 0 0
826 1 0.029944776695893592 0.5829081607782574 1.7935511123199899 0 0 0
463 1 1.1080879858361652 1.1251436627188145 1.5844923682335217 0 0 0
3 1 1.7677514170692006 0.16256756012745863 1.3774750112098944 0 0 0
798 1 2.9375654221388596 0.5530243128600523 0.7626257049291302 0 0 0
797 1 4.004785390029737 0.551747947272962 0.9374401125660662 0 0 0
1207 1 3.1857059597588657 2.0739037197751395 1.001210156026043 0 1 0
864 1 3.885840676186099 1.1834474263596007 16.248565039103656 0 0 -1
831 1 5.077069913463088 0.33069865181992086 0.8215134355196195 0 0 0
4790 1 4.613165522215184 0.7425378737914806 16.95697603921369 0 1 0
436 1 5.775105971027663 0.9432952493980133 0.021861650615220624 0 0 0
476 1 6.178726998325551 0.6494780396954449 1.0332815225247556 0 0 0
14 1 6.0994537764288745 16.96392280105949 0.12994233338679892 0 -1 0
4589 1 7.109896054296107 0.2373167879836712 1.4925921065620755 0 0 1
1213 1 7.851734093887598 16.855100600308994 0.8261550530109186 0 -1 0
4560 1 7.902946134084659 1.0912374616245633 0.3707618409362645 0 0 1
4597 1 6.911400394606036 0.4670243407755502 0.365563513013109 0 0 1
503 1 8.695956259270258 0.4593005881275165 0.6959937502810931 0 0 0
445 1 9.823349675561875 1.749354024397153 1.600998913469635 0 0 0
479 1 10.482697473588237 1.1136701420032233 0.4024951899088514 0 0 0
379 1 9.44749685611244 1.3386745423840123 0.6550882787551937 0 1 0
19 1 10.33518173366921 0.7299928731827774 1.3009619254141622 0 0 0
3347 1 10.541596695856658 16.966425798152603 0.5311897687650193 0 -1 1
1151 1 12.85040214946706 0.4921177804545563 1.6143823987151416 0 1 0
818 1 11.515912275081693 1.4113730855571986 0.6167186505536477 0 1 0
513 1 13.457959135310857 1.7760095474020878 0.1981161626569227 0 0 0
67 1 13.343291455496542 0.20788617060285555 0.8213205431482202 0 0 0
61 1 14.278986513167185 0.7017595801420243 1.5208338815149465 0 0 0
4880 1 15.187522581009128 0.717500726052566 1.12582389248521 -1 1 1
4517 1 14.491410377713654 1.4639754875528508 0.6727148892959712 -1 0 0
69 1 14.397685335197892 0.34449989677257364 0.5071791987852529 0 0 1
4883 1 15.554889937660384 1.7481381602116004 0.7628461286298813 -1 1 1
461 1 16.245997918572737 1.0448984355524051 0.5745605024208212 -1 0 0
758 1 16.09508613652922 1.2794128636786928 1.5937736693289242 -1 1 0
824 1 0.5113459277747613 2.49546585853134 0.1399961100361376 1 1 0
6 1 1.0036557968360929 1.8806878013479507 0.942051584989763 0 0 0
862 1 2.198911513662012 1.9831205727836216 1.1792077064638598 0 0 0
4890 1 1.6704553071933959 1.0653249389293329 0.7183118749435029 0 1 0
9 1 4.03214620047791 1.5713218193802705 1.283365941694996 0 0 0
472 1 3.8497959525785093 2.8972315375706144 1.0710917799912996 0 0 0
4184 1 4.8252386681252295 1.890064878744419 2.477395860791754 0 0 1
4556 1 5.411390310402744 2.3932958709768335 0.07918921132109297 0 0 1
4528 1 5.047241681407872 1.5458413014772605 0.4788884382323178 0 0 1
46 1 6.062545464892779 1.7148362040550136 0.7979673621242648 0 0 0
42 1 5.490395969700963 2.5777778522092425 1.0421436875857164 0 0 0
539 1 7.059395344210243 1.3524559753987597 0.9594728093130495 0 0 0
4590 1 7.120595010545534 2.6266579251293733 1.2136280035351659 0 0 1
4535 1 8.374293133649061 2.033964432731673 0.09770443971978703 0 0 1
441 1 9.320472897742142 0.8638030109168724 1.4727754914236526 0 0 0
4215 1 9.15922021791058 2.2462186757721234 0.8407490260470416 0 0 1
477 1 9.790056432610704 3.2196644621151007 0.07528235382402948 0 0 1
21 1 10.017101336449764 2.201952925402413 0.18445133392887095 0 0 0
816 1 10.854910879763569 1.5976587439194145 1.443945897254889 0 1 0
777 1 12.563487165217007 1.4824398745168865 0.684383796060794 0 1 0
23 1 11.922926889818756 2.1841813540604127 1.306381726462557 0 1 0
455 1 12.265191008022008 3.7252512075540176 0.6040069151069527 0 0 0
1223 1 12.038940682685826 1.131287395380702 1.6756511866238766 0 0 0
380 1 10.821250438293099 2.303774066482722 0.6168516528235287 0 1 0
387 1 12.915840388049716 2.8594339261403148 1.3794416906212859 0 1 0
416 1 13.615044699653398 2.075003418227503 1.2658458233327379 0 0 0
423 1 12.713469251216768 1.8683778545187877 1.9172192113148323 0 1 0
4163 1 14.928164896066834 2.0911416502091162 16.9649983936914 0 0 0
29 1 13.957736014065379 2.6442693256764285 0.4255453745764516 0 0 0
1646 1 14.725485457853933 2.3572010371971315 1.1878242937983476 -1 0 0
4 1 0.23891888404223374 2.7850398489724135 1.1780491790790133 0 0 0
4911 1 16.587307819836347 2.0181141820128126 0.8367774925016024 0 1 0
30 1 15.741507812526931 2.234535739281642 1.6585091968982262 0 0 0
457 1 1.3739880420840254 2.807381737453519 1.2117533599408816 1 0 0
4910 1 0.1388297422014687 3.5565076998692944 0.363338685438952 1 0 0
4583 1 0.815419330581858 4.215531779225477 0.35154179449270684 0 0 1
4174 1 16.939462308806856 3.8834179785588683 1.236848483460103 -1 0 1
75 1 3.0382082180685743 2.6948121693247966 0.19959977675815177 0 0 0
394 1 2.2314867218771766 2.932205688044078 0.789595169237438 0 1 0
4649 1 1.0871522791254908 4.223895122174214 16.378368705741355 0 0 0
8 1 3.026358857416742 3.583465621944754 16.637973895750115 0 1 -1
890 1 2.893090089966592 3.6219153939999362 0.640097400338661 0 0 0
113 1 4.530261235952465 2.3593014593131354 1.6513828488614015 0 0 0
44 1 5.429822275564223 4.0989313109680126 0.5896113399770537 0 0 0
4619 1 4.0613350491098945 3.949140474692615 1.1679853371783113 0 0 0
4223 1 6.376098808415839 2.8230937603568074 0.3499940682863512 0 0 1
499 1 6.385535079819872 3.971694330576964 0.19041042606507091 0 0 0
4620 1 7.157599038291122 3.6799184202104227 0.9857636050113683 0 0 0
4155 1 7.931134307164345 2.8976515637847977 0.6500360879617267 0 0 0
129 1 7.328194990384816 3.0951878836644027 16.958921782712693 0 0 -1
576 1 7.931324627579745 3.8052666878551134 0.27936753618797844 0 0 0
20 1 9.570893550260582 3.7211434432821306 1.2960486772964244 0 0 0
839 1 8.538610198993684 3.6105850601292384 1.1058855217690626 0 1 0
484 1 9.26134890725556 3.813535497832287 16.232830525853046 0 0 -1
93 1 10.455608696536535 3.3124551773759894 0.7666120072286223 0 0 0
51 1 10.794641195149127 2.8293712928282253 16.72138292997922 0 0 -1
4232 1 11.697696156958255 2.8662458577454384 0.6439865006441496 0 0 1
4603 1 12.795261380075793 3.039213125186236 2.314790506405271 0 0 1
488 1 13.233096004221212 3.458802364077402 0.579234212639515 0 0 0
24 1 13.491623190218153 2.8955106819110883 16.494579457059437 0 0 -1
4574 1 15.272201393628647 2.895551526917605 0.6692413256340709 0 0 0
428 1 14.957349160278753 3.3757126716544428 1.5119648514500759 0 0 0
4632 1 14.794008476226782 4.750179940212826 1.1321744506563782 0 0 0
4540 1 14.141643537649996 3.9314540397498616 0.5985974371408844 0 0 0
4170 1 16.146301068468606 3.8039227849729054 0.3507591369412728 -1 0 1
805 1 15.510134144773048 4.105353665612009 1.1098768741191758 -1 1 1
4137 1 16.24377927755492 3.1845693330604226 1.285522906507874 0 0 1
4607 1 16.538848354175233 4.725651473925033 0.5742195408224117 0 0 0
107 1 16.879816547762367 5.559372593001067 1.0104082167257589 -1 0 0
142 1 0.23277381722199642 5.1553542700623245 0.02190694036102204 0 0 0
491 1 16.854572024900875 4.270717618918846 16.415800915924777 -1 0 -1
930 1 2.72069360049288 4.813906323856049 16.723061272232044 0 0 -1
521 1 1.6455794942638364 4.753996000122106 0.8745314098801882 0 0 0
4584 1 3.8456923113928942 5.551147323608721 0.09400314710599969 0 0 1
526 1 3.363668891119845 4.429617156347392 0.4249347969491915 0 0 0
528 1 4.382605962360339 6.172124569948907 0.6854131475389982 0 0 0
153 1 5.598701994671518 4.434734217357818 16.57704638963639 0 0 -1
4654 1 4.484731251370019 4.3305027005173935 0.2817885898915872 0 0 1
4187 1 4.823577596900726 4.290598660973583 1.9542459271263675 0 0 0
569 1 5.920536614586196 4.965314701554789 0.42327741951803016 0 0 0
160 1 6.633300096623774 4.883583327389089 16.576075603352674 0 0 -1
507 1 6.150224930712582 3.5448003422144465 1.1653283314817293 0 0 0
85 1 7.854862522658615 4.482978139411185 1.2689289344331713 0 0 0
867 1 7.150904757351217 4.6257588222740065 0.43371048756910746 0 0 0
510 1 9.058439556084844 3.948990260607723 0.2790986331763371 0 0 0
86 1 8.365063070584025 4.844972768658855 0.47487623865454215 0 0 0
1292 1 10.081852868436952 4.198740170025967 0.5427180014863954 0 0 0
646 1 11.20961199750652 3.86935220668779 1.1909252472647882 0 0 0
947 1 12.15657891009587 4.356624673097714 1.4749844690915899 0 0 0
1324 1 11.648909587403603 4.844369809077158 0.7078907206212828 0 0 0
919 1 12.8987326652398 4.479648735557055 0.7366005629041426 0 0 0
133 1 12.559605405293318 5.395697832395266 1.2351436350139988 0 0 1
3835 1 13.703671752903562 4.942528061814218 1.017648176974492 0 0 1
975 1 13.171043252237197 4.8565905569500645 1.9190304218249357 0 0 0
4604 1 14.332679021458047 5.807087119940031 1.0638155244108933 0 0 0
132 1 15.246768510813569 5.750329142281819 1.8649558341089758 0 0 0
137 1 15.867886932303815 5.24644982909546 1.2154938407217728 0 0 1
4637 1 15.642202780837902 4.686830117779217 0.1700035261185327 -1 0 1
4606 1 15.887937060505067 6.409902196014259 1.0751423776742166 -1 0 0
105 1 16.4371531315902 5.925054339219475 1.8357877419441233 -1 0 0
524 1 0.9932249607846162 6.744902320234016 1.3404033243296365 0 0 0
4612 1 16.98532424409358 6.572085904784936 1.1897255151630084 -1 0 1
117 1 2.1368086979283247 5.860933527338943 0.4026532783652423 0 0 0
4642 1 0.9456577636664366 5.8413162291011105 0.6794944874262692 0 0 1
4253 1 1.7790095965501533 7.254716755004804 0.9855716870314555 0 0 1
183 1 2.5762135748584316 6.819731076624047 16.861230099290065 0 0 0
4617 1 3.391768223797347 6.500782385879519 0.34522362487043534 0 0 1
220 1 5.165595189831849 5.977304190034198 0.08545113179535747 0 0 0
4721 1 4.3254983899498765 7.208318566627855 0.8088995524208972 0 0 0
4252 1 5.804966279696588 5.594125250418966 16.465977342237696 0 0 0
605 1 6.0375946738129525 6.334245785151868 0.18536673625406122 0 0 0
192 1 5.317779474923465 6.8987185273676666 0.7724269934473792 0 0 0
4663 1 7.014632817739302 5.624230603819877 0.21884451060669935 0 0 1
4291 1 7.793150648267371 6.61367028706334 0.8745544383253776 0 0 1
4626 1 7.0678022250741686 6.699358705937437 0.11097995877687875 0 0 1
124 1 8.76073077506392 6.768241830835964 0.7059256834894777 0 0 0
485 1 9.998619210538525 5.197068082961805 0.8299653208644857 0 0 0
4565 1 8.946579135759013 6.363020738040608 16.621715641555056 0 0 -1
545 1 8.151452043843248 5.909891258592435 0.3350606305375428 0 0 0
1366 1 9.819342448063308 5.9874255217188805 0.0899158210922888 0 0 0
866 1 10.769643167081385 6.925351752883735 0.33854867241187364 0 0 0
4296 1 10.923371849585033 5.7824130701915175 0.629194424439369 0 0 1
190 1 11.885139880237439 6.012749319900515 0.6142308726238327 0 0 0
128 1 11.642400502784986 6.675006897857915 16.947991587416592 0 0 -1
4231 1 12.074510947867442 7.113133801836675 0.7402476083209449 0 0 1
4672 1 13.307106621974466 5.696713174271005 0.48636673298315225 0 0 0
982 1 13.735834063627037 6.8954052374065276 1.3364428851658303 0 0 0
134 1 12.96428314440284 6.851016438755085 0.36629350207301403 0 0 0
583 1 11.9702279954803 7.1771356864978015 2.1256596311410663 0 0 0
140 1 14.832119091402195 6.694660801720327 0.903942079753904 0 0 0
515 1 15.12024712736113 5.4545160347888215 0.5756924935393672 0 0 0
4179 1 15.243271455649525 6.796469919691958 1.929849940158459 -1 0 1
4207 1 16.441917964422917 6.596788477428605 0.20749563840996538 -1 0 1
4609 1 0.6733202582790327 7.837983488173567 1.1254811571891352 0 0 1
178 1 1.1338790540330212 7.907257561300926 0.10896688418082667 0 0 0
4744 1 0.32980973785956785 8.809773737469857 1.158459680627007 1 0 1
173 1 2.2348658740268568 7.955743732410939 0.23249262019408137 0 0 0
4277 1 1.5675954598786792 8.353633929901989 1.0475596183733793 0 0 1
559 1 3.526193175855556 7.829106232238604 1.6308150641850507 0 0 0
4282 1 2.8095897678302095 7.245595344743412 0.8119392203179 0 0 1
150 1 3.54300867063698 7.529808372104415 0.12208028387736518 0 0 0
671 1 3.014757700921678 8.405896269820063 0.6157598248084971 0 0 0
3437 1 3.995014976118367 8.312394254203669 0.69852741646656 0 0 1
161 1 5.090943362960653 7.897222027652192 0.47416814547185265 0 0 0
600 1 4.951690988176507 8.715698888047834 1.0194037459120722 0 0 0
223 1 5.094867129657733 7.0541898913955645 16.82386619404634 0 0 -1
601 1 6.386030630162146 7.128287871141277 0.7375263865465935 0 0 0
188 1 7.122254498087741 7.96790390523199 0.6410016395746967 0 0 0
967 1 5.889939779562279 7.946466209882819 1.0309877439570605 0 0 0
4289 1 7.986708298314672 7.100523512883948 16.796300581742276 0 0 0
4727 1 8.075302657140568 7.639349930765086 0.61634164114206 0 0 1
4658 1 7.696470728379111 8.169913050659856 16.8492755124156 0 0 -1
228 1 9.035092367284838 7.769986134942937 0.8228406744448991 0 0 0
506 1 9.86478206904961 8.645082664337735 0.22723332788452777 0 0 0
942 1 10.642331956891084 8.04490686244665 0.6000878275206191 0 0 0
574 1 10.73765373212862 6.161613193196528 16.64585365710473 0 0 -1
587 1 11.433510331573897 7.724543633741642 1.1870576175608802 0 0 0
621 1 12.305499796058779 8.05579883549615 0.4141236284320538 0 0 0
196 1 13.206675954963705 7.773178213808799 16.85346810809171 0 0 -1
166 1 13.846690944037855 7.758067689589025 0.7344184098029057 0 0 0
201 1 12.91420961402046 7.418593998242071 1.2257671269604833 0 0 0
200 1 13.13863226213162 8.543752960705353 0.870210587808861 0 0 0
172 1 14.028519415404377 8.54603373364951 0.1666157676763594 0 0 0
4677 1 14.85899055630708 8.357698248185217 0.8710195633774139 0 0 1
4700 1 14.874548071856452 7.599901381623018 0.2151034818607523 0 0 1
685 1 15.473567219932773 8.638541189514344 0.16502540528464987 0 0 0
4576 1 16.641617471631147 7.524780419505989 0.982423993012044 0 0 0
985 1 15.431180996100194 7.509873963782268 1.0378262815704167 0 0 0
170 1 15.613911010883974 7.789196623115895 1.9958359797959333 0 0 0
4710 1 0.5575785502322899 9.845373704780059 1.7710931183408016 0 0 0
4244 1 0.801658710667802 10.12338718291642 16.166731184571308 0 0 0
282 1 1.135862074226769 10.535396308013791 1.0391245066917862 0 0 0
277 1 16.75080533248105 9.805720072350931 16.562804771430212 0 0 -1
243 1 0.33459897367190766 9.715150673504963 0.4019645470457892 1 0 0
1027 1 2.176619514326564 9.114673404912148 0.5589690656728569 0 0 0
1062 1 3.159837786728246 9.75404021536372 1.0349580830286824 0 0 0
4723 1 3.5035371555402 9.144070847187846 0.14836619250851873 0 0 1
4656 1 4.262103986295637 9.49705469939476 0.8634270848663659 0 0 0
4653 1 4.619419747445351 8.823276690216604 0.0798176527424195 0 0 0
218 1 5.416412265921773 9.727165593434673 0.8198689646054905 0 0 1
1039 1 5.935774441888804 8.905531939048316 0.32578527456000206 0 0 0
3933 1 6.6828014175696255 8.425203292932148 16.806204218225144 0 0 0
1034 1 6.655046941789653 10.001779539094223 16.779090354983673 0 0 -1
4729 1 8.34893352104427 9.441214231154731 0.24593919860412286 0 0 1
615 1 7.998396069602682 8.832883211183528 0.965284928008635 0 0 0
262 1 6.956480660180823 8.988083454468335 0.8173161899664171 0 0 1
1074 1 8.673733422892951 8.440029832163464 0.01194325201181223 0 0 0
613 1 9.808610726176749 8.149265486983063 1.2117105930403897 0 0 0
189 1 9.074235680529744 8.819187177029377 0.9082207342090753 0 0 0
4359 1 9.612004547893259 9.921142068055929 0.9236828342635452 0 0 1
610 1 9.279956856955858 9.48978479991196 16.981803836725796 0 0 -1
581 1 10.161399965994859 9.150673219797826 1.0991069875747188 0 0 0
195 1 10.460226446397138 9.975982032602857 0.35727858260487383 0 0 0
231 1 11.110109586659428 9.32482161824107 1.5034877638420336 0 0 0
1071 1 12.729254996616149 10.219521774310486 0.7915984175609717 0 0 0
4699 1 11.599133621692843 8.691278121209018 0.8193715942654055 0 0 1
676 1 12.54937633407492 9.254239971434783 0.4297132773669539 0 0 0
4264 1 13.654835653382152 9.744333140601567 0.6595365786555616 0 0 1
677 1 13.783866145305607 10.151950866738941 1.6889084364933187 0 0 0
241 1 14.727973884541345 9.769158798149432 1.5362533342701647 0 0 0
554 1 15.76570594535379 9.860617005961055 0.10735224133395187 0 0 0
209 1 0.04626049685166369 10.501680951498289 0.910744681609913 0 0 0
661 1 1.2267727523969985 11.492061401143038 0.36286971257219125 1 0 0
4346 1 2.128591792697781 10.096483064010025 1.175554584263854 0 0 1
3981 1 1.8939848670080714 10.604091998466515 0.26535176218392853 0 0 1
4339 1 2.9300855909438357 10.719708572417613 0.5210368363672818 1 0 1
179 1 3.732892708750598 10.214791411661999 0.21073183682881022 0 0 0
665 1 4.689052648783153 10.408308200352007 0.3269342664879037 0 0 0
219 1 3.9295396050739266 10.395049011365755 1.2642005940248653 0 0 0
252 1 4.140645209516354 11.209886464210507 0.7764139849931293 0 0 0
4782 1 5.9397822630465145 10.416865521334403 0.3406230205424827 0 0 0
4285 1 5.984466984327442 9.17333356079163 1.4277621110506287 0 0 1
629 1 5.19871226855634 11.0815534833354 0.8635621369442915 0 0 0
637 1 6.352174928232255 11.074704108368604 16.742640802566257 0 0 -1
256 1 6.429560531844807 11.247096123342699 0.7232989013400473 0 0 0
640 1 7.672231699049782 9.986811742865816 16.55227645553147 0 0 -1
297 1 7.524041668405012 9.882556733705213 0.5778425793037201 0 0 0
641 1 9.124815005656679 10.535984502827894 0.22475463130862613 0 0 0
4734 1 9.042089503863217 11.042819684930672 1.215602305402538 0 0 1
4733 1 9.815741297601939 10.275017870749743 16.501406631830474 0 0 0
1119 1 10.055225190818373 10.85636282762415 0.6995257840571278 0 0 0
310 1 11.192714909530793 10.637330429090701 0.6001912014012224 0 0 0
4760 1 11.986088456480564 10.803849337958834 0.02653316262667227 0 0 0
651 1 12.151831924334507 11.087693676906538 1.0030858320264722 0 0 0
236 1 12.288102799962092 9.24719838897141 1.4064882782554382 0 0 1
4338 1 13.59762474210778 11.745983146788744 0.9089354772333925 0 0 1
1440 1 13.847434139998256 10.710729553568354 0.7110440725694654 0 0 0
198 1 12.974420880021944 10.999637350033485 0.24718672706476288 0 0 1
213 1 14.904397876295155 10.429748535192575 0.8341735683446222 -1 0 0
4004 1 14.552714846636613 11.477704276439137 0.9414041204273225 0 0 1
4773 1 15.536386206830436 11.793080604385734 1.0325070951285595 0 0 1
274 1 15.921601368507854 10.418860505069082 1.0093897460573977 0 0 0
4680 1 16.5077232753777 10.65155155148383 0.07969541909573197 -1 0 1
3947 1 0.8741686640119397 12.442058038771227 1.2038457281935013 0 0 1
4814 1 0.35232832958015753 13.150326293203888 0.5991469626423738 0 0 0
4715 1 0.14269857197739216 12.186785185154148 0.3584627123087601 0 0 1
245 1 16.69070005539052 12.299304490047385 1.196046164119375 0 0 0
1124 1 0.5844024808631028 11.44890197072301 1.056435248519099 1 0 0
4347 1 2.1058604885472967 12.370442577673192 0.6670704495910594 0 0 1
4752 1 4.337458494815743 12.956819476779932 0.8060136997344869 0 0 0
251 1 3.7768830684190653 12.06401793027076 0.39015634358035584 0 0 0
700 1 3.15000257608495 12.689819125039612 0.9670409200423595 0 0 0
3948 1 5.796539658490888 12.173970953944032 0.3671764932939905 0 0 1
4352 1 4.751538859585058 11.965940677159038 0.2243909089065327 0 0 1
4384 1 4.793100480076189 13.003344391143527 16.869009229956696 0 0 0
1459 1 7.049625859268136 12.048744528023905 0.4410612939625719 0 0 0
4350 1 6.730868146905915 12.845439078168694 16.84386198408787 0 0 0
674 1 7.333414653502306 10.928568433480779 16.857430893907285 0 0 -1
298 1 7.980669566948043 12.069426173817687 1.0244169199904558 0 0 0
258 1 7.09651214528085 12.766310188257592 1.1693115141022776 0 0 0
4762 1 9.599620012691693 13.037907121905922 1.1522558689953206 0 0 1
4731 1 8.881267104023406 12.089900259533358 1.4479736049252854 0 0 1
4326 1 10.100757030267125 12.218618837778179 0.006096186891975372 0 0 1
1078 1 9.774819787981615 11.893010767363638 0.9150413970747782 0 0 0
1084 1 11.131649151542428 11.570635966403271 1.274490439308822 0 0 0
4736 1 10.633022543039711 12.424938920477546 1.0210560974657334 0 0 1
681 1 10.7644087780002 11.528981487576072 0.27684827218178426 0 0 0
718 1 12.70880115981165 12.897598109290463 0.9531662514682916 0 0 0
233 1 11.733988845312979 11.716233957622133 0.1673463545540831 0 0 0
3532 1 13.441939641569531 12.685973422498837 0.3232918269319805 0 0 1
716 1 13.57781185225077 13.256607654506713 1.2338785123471954 0 0 0
717 1 14.339650571074523 12.551489038530248 0.8503739549606626 0 0 0
4783 1 15.379918788215853 12.840616907502685 1.2551297299909854 0 0 1
4842 1 16.512809329075193 11.353144585189662 0.7245433183946629 0 0 0
4743 1 16.11460273602032 12.302057746234436 0.21414013540471616 0 0 1
276 1 15.807474802497971 11.972856128071365 1.944902939907371 0 0 0
4374 1 15.064028721146338 12.20047868084467 0.11556819907948598 -1 0 1
215 1 0.9613257040522322 13.981501599243416 1.2548699047452494 0 0 1
285 1 0.9994109843430311 14.256045157384527 0.27509415230884987 0 0 0
627 1 16.70270264591927 13.952193657636135 0.260045006760427 -1 0 0
288 1 2.048768469459586 14.17937647194735 1.0200394034794429 0 0 0
254 1 1.8139288074837359 12.923462579991 1.3230750182255515 0 0 0
4753 1 1.971074031824572 14.906430875872827 0.27210074557080954 0 0 1
291 1 4.132415879518341 13.98098141932908 16.67684846205083 0 0 -1
1137 1 2.4971748046824658 13.312531973015771 0.5663595093950897 0 0 0
248 1 3.684818684378497 13.07278453485637 0.016313878829333106 0 0 0
4343 1 5.378604370896809 13.055644069550507 0.7750322886721654 0 0 1
259 1 4.60224216528056 13.969587926597633 0.5372593843984985 0 0 0
4315 1 5.691396697740382 13.994960094825196 0.2526826781575648 0 0 1
4756 1 5.79146084671209 13.103821653896812 16.68113569588171 0 0 -1
709 1 6.4219876013961805 13.376369497890098 0.7186490298278357 0 0 0
301 1 8.573064302259755 14.164692367701967 0.8827150760804156 0 0 0
4765 1 8.432826654852272 13.044962709989624 1.1326344210081567 0 0 0
299 1 7.694155546566576 12.94483489792166 0.2736319893455647 0 0 0
1141 1 8.803322959318457 13.458056146543658 0.2526125011173079 0 0 0
340 1 9.549474856163435 14.127813253842618 0.7280775272352639 0 0 0
278 1 10.402099131255355 13.431183230902702 1.6785143295441076 0 0 0
346 1 9.0297672813092 13.787590750474795 1.706180242491522 0 0 0
1114 1 11.696980508033233 13.478580031420881 1.184217811067861 0 0 0
4770 1 12.010685272852339 13.108811121092991 0.19334103680965695 0 0 1
4834 1 11.08942416007672 13.695123712721589 16.967406044562566 0 0 -1
309 1 12.19313442535462 14.155894809326549 0.25968733116491105 0 0 0
649 1 11.087500979104787 12.676940948166381 0.14998803319644122 0 0 0
4439 1 12.940171548699995 14.008835106165765 1.0070276417888744 0 0 1
350 1 13.63179925589477 13.661087276049221 0.28971529255051587 0 0 0
354 1 13.871991894425166 14.536136628059948 0.8204022131443394 0 0 0
4307 1 14.956932943940531 13.407423041269308 16.994593462324506 -1 0 0
1127 1 14.69131771988559 14.312800870860197 0.41973874869183747 0 0 0
748 1 14.634483257466213 13.534836886225397 1.0230958353830466 0 0 0
4784 1 16.291368239181306 13.116364441804846 0.6756000990312233 -1 0 1
205 1 15.675543721564797 13.967402515771951 0.7139504389398845 0 0 0
1094 1 16.830601566112573 14.629325036350222 2.098618671443332 -1 0 0
4749 1 16.623755294206294 14.01302943961122 1.2901048641914714 -1 0 1
755 1 0.21239284160751043 15.931913322328638 0.6363523706132982 0 0 0
4912 1 0.4358626870847603 14.82167302550431 1.0605400879207332 0 -1 0
330 1 2.856932088306764 14.463038344170297 0.6239467983281064 0 0 0
1590 1 1.4058100597051664 14.909984109874575 1.429054825955158 0 0 0
253 1 1.1058492260364137 15.27849070348619 0.5093971766697645 0 0 1
733 1 2.41053788060489 15.229162311324432 1.079299963981823 0 0 0
4792 1 3.5830410708600393 13.694987055375519 0.7948927875481346 0 0 0
334 1 5.962223394825279 14.973434924024838 0.6497969821628613 0 0 0
693 1 4.956249254035717 14.85014372642957 0.31181425934977297 0 0 0
707 1 3.843207522609894 14.63090212079471 0.4768728658272183 0 0 0
774 1 5.7800675184860255 15.135283333935137 16.637121108270826 0 0 -1
261 1 6.390477374796335 13.967670883346653 16.281106444821233 0 0 -1
263 1 6.693124110891155 14.737018023996574 16.987134122649614 0 0 -1
265 1 8.093389964409221 14.040270087042968 16.778846910821517 0 0 0
339 1 7.093730268057768 15.46140340140523 0.8441450449063682 0 0 0
1594 1 9.114069025431057 15.532748446387831 0.6924026438112703 0 0 0
302 1 9.319737004168983 14.797100569691391 1.457383305312252 0 0 0
4832 1 9.669334527623786 15.35184533524982 16.68286898297369 0 0 0
706 1 10.527572430199813 14.480787407368775 16.968424512108562 0 0 -1
413 1 10.398820608056337 14.998990753960074 1.6116836063445128 0 0 0
744 1 10.56150204515719 14.04030838932216 0.9264973843676912 0 0 0
806 1 11.0492892040175 14.292111679202085 1.719003840506621 0 -1 0
414 1 9.9547874368483 15.050238326141168 0.6843245156964064 0 0 0
4840 1 11.956896546754304 14.452379740361636 1.2095344100467944 0 0 1
802 1 11.107804180049172 14.878818696601172 0.8739512818010071 0 0 0
420 1 11.816833645225199 15.600017526411179 0.46033957431195305 0 0 0
4433 1 12.740709968846017 15.02292422569298 0.7091105053265371 0 0 1
4432 1 14.151983232629945 14.748645823267834 16.642460192613182 0 0 -1
4813 1 13.505677819389838 15.415798009112422 0.12312677336558309 -1 0 1
4779 1 13.598356322621983 15.376810863775932 1.2760341231358099 0 0 0
389 1 15.628847511441595 15.14388818751454 0.45499897304468545 -1 -1 1
391 1 14.891410773468671 16.357839337057847 0.8561872211193132 -1 -1 1
650 1 14.58974785336932 15.358119355155246 0.9823996916720078 0 0 0
4811 1 0.37131742210008173 14.66237360733021 16.663314359063143 0 0 0
287 1 15.986699035131558 14.848534391524725 1.5201436281386886 -1 0 0
314 1 16.562349974422165 15.956269842072068 16.75995277198237 0 0 -1
724 1 15.590324935922643 15.817069015094008 1.6797081964216602 0 0 0
659 1 16.569563603856533 15.179066798471347 0.6250828332851526 -1 0 0
727 1 0.9068552327346194 15.838461060293303 1.337217316668703 0 0 0
359 1 16.747873602713828 0.1222833225785984 0.7360829739020495 -1 1 0
4111 1 0.7437023443858065 0.24400028170158203 1.0055130738027855 0 0 1
4750 1 1.811825453325472 16.13334376879362 1.3512358411421919 0 0 1
336 1 2.0615272202418 16.557214010521953 2.3647802002628144 0 0 0
364 1 2.677524212996974 16.371937246309493 0.8764050676955092 0 0 0
4820 1 3.6845107002108763 16.550599631420134 0.6458296304731487 0 0 1
4488 1 4.606044820889416 16.720781838905882 0.010559729764439856 0 0 1
801 1 5.194305344527849 15.523196229234749 1.2742389316016993 0 -1 0
793 1 4.69902449218114 16.502861315608097 1.172772357097559 0 -1 0
405 1 5.401205433163615 15.873218261425952 0.2629000105656288 0 0 0
373 1 4.409661240059777 15.755964433414732 0.48691871191135155 0 0 1
366 1 4.274078431993349 14.851560150512517 1.2767810471151133 0 0 0
81 1 5.720202676851958 16.45864428318902 1.1260418300252901 0 -1 0
4892 1 6.3744360823511474 15.856195937226868 0.24325719221541878 0 0 0
4149 1 6.746767539090303 16.52005570797262 0.9423136353818403 0 -1 1
1181 1 8.029083619030416 15.796852908994973 0.46502625824596644 0 0 0
804 1 9.39725718458104 16.261695550371048 1.4851702786479775 0 0 0
838 1 8.659070058285362 0.05947445012864587 1.6225848015958488 0 0 0
745 1 9.614646401428073 0.09990985364873078 0.9084316227266059 0 1 0
815 1 10.85685910410325 15.946902355844758 0.6605325018416655 0 0 0
408 1 11.364997202227505 0.5997572269978437 1.2503110766211054 0 0 0
355 1 11.821757674878617 16.523055890162293 1.3054810144085347 -1 0 1
4831 1 12.594966413556962 16.284391590458473 0.5075692140644875 0 0 1
419 1 12.28617931099235 0.4527031718550961 0.7021510803465637 0 1 0
421 1 12.966601571042949 16.417778026888886 1.4741803458691667 0 -1 0
4906 1 13.701149193487147 16.18581334844265 0.6967560552907817 0 -1 1
361 1 13.931230081509359 16.560852740409583 1.6628851453850666 -1 0 0
757 1 14.858621147478564 16.779567379196315 1.808768120156889 -1 0 0
388 1 16.6749117720025 15.748352330220115 1.5175516495754622 0 -1 0
327 1 16.039293212642647 16.03572035157052 0.6754769439915291 -1 0 0
1236 1 15.811946077124794 16.793147715748727 1.285997879731266 -1 -1 0
363 1 1.1311080900524608 0.19811806633142873 2.157030934180496 0 1 0
1270 1 0.1891216253696946 1.0764663067840121 2.9961249371946406 0 0 0
4548 1 1.3875958512633053 2.0792702903534344 1.8768236526052489 0 0 0
889 1 3.0181108827080867 1.1125531286761365 2.571131390002109 0 0 0
863 1 2.1767342373139935 1.0297059195772849 1.6257793723567644 0 0 0
1200 1 1.8712329359392796 0.6266948273095271 2.8571248896978405 0 1 0
4524 1 2.714161446734932 0.11949980807411086 1.6288818113113568 0 0 0
1691 1 3.8851692967723275 1.5675810118938212 2.3516773968363642 0 0 0
399 1 4.694311451811897 16.92355633212379 2.206539723251445 0 -1 0
834 1 4.57948515914213 0.8349163564511801 1.6459589743407523 0 0 0
865 1 5.510233953590408 0.318814538587972 1.720667341336111 0 0 0
833 1 6.268752587449174 0.36679844371291676 2.369740845213019 0 0 0
901 1 7.198420264003564 0.7879351517019328 2.3115268114220173 0 0 0
1212 1 7.92062442505146 0.8802511554743535 1.3089030533832449 0 1 0
1217 1 9.841945742685258 0.21182370300145265 2.166252144679572 0 1 0
810 1 9.312346687826931 0.16686314275212286 3.0577417959461135 0 1 0
1222 1 9.991947927261501 1.274506435057444 2.5600965853961912 0 0 0
437 1 10.928413637970925 0.784776979003698 2.124727955486166 0 1 0
809 1 11.908917119065082 0.14078825622715044 2.06381589874945 0 0 0
483 1 10.934432668930214 16.803724844523895 2.3397794559462626 0 -1 0
779 1 12.690671234198687 0.8903998680203956 2.4822832504662125 0 1 0
446 1 11.945439446332271 1.3340908255491701 2.8568436809818256 0 0 0
4908 1 13.593513588523086 1.168100865270096 1.0094069823664173 0 1 1
1 1 13.479176999148217 0.23441091721639692 2.5602476546696793 -1 0 0
1264 1 14.433179068413093 0.7585415423673828 2.5632783743789953 0 0 0
1301 1 14.827330029433 1.4822854541767108 1.8042249439257512 -1 0 0
786 1 15.23095572730565 1.250815527794274 3.06993708190336 0 1 0