LAMMPS data file via write_data, version 7 Feb 2024, timestep = 25000, units = lj

10647 atoms
1 atom types

0 22 xlo xhi
0 22 ylo yhi
0 22 zlo zhi

Masses

1 1

Pair Coeffs # lj/cut

1 1 1

Atoms # atomic

1470 1 21.75482899910855 1.3866701245657171 0.70787721993775 0 0 0
2183 1 1.0618887152052532 0.7402253027858036 1.6162174889701604 1 0 0
55 1 0.19662764231734467 0.5438720721527037 1.079566207316355 0 0 0
2082 1 0.7445931049019076 0.6267656506692642 0.25833233874975037 0 0 0
52 1 1.779784025100573 0.8701314930377256 0.8428861928256222 0 1 0
9246 1 2.850029154855284 0.31770107855883045 0.31773714668030106 0 1 0
2 1 1.4150069003976768 0.02667520031060365 21.792619857177225 0 0 -1
4 1 2.827784151653483 0.9159465038556664 1.2808484174070938 0 0 0
60 1 4.029604998057824 0.6018861157470876 0.7492989272537445 0 0 0
9945 1 4.0343607834877515 0.18948668751743408 21.560293700355206 0 0 0
9942 1 5.530230279366559 1.1952516111906961 0.19586085313504698 0 0 1
9952 1 4.503906319315182 1.3311329557168599 0.13530687894884263 0 0 1
645 1 4.904522697024875 0.23727599656062695 0.2525050303022998 0 1 0
1390 1 4.9448479364764 0.9402240942509303 1.1284945552018368 0 0 0
9948 1 5.985925534996841 0.05878596361308305 0.5894194713792723 0 0 0
10005 1 6.749429642625689 1.2042707127265009 0.49583436285043575 0 0 0
793 1 7.680527741459308 21.982305182910586 1.7420985705902936 0 -1 0
67 1 8.622570736128084 0.6864070918171129 0.27063402893402394 0 0 0
2105 1 8.04508618152213 1.4190878538958054 0.8161208946551314 0 1 0
14 1 7.710931701933178 0.4954794061237737 0.5737363471623692 0 0 0
839 1 9.788689005187702 1.7912726891916038 0.3681847411396961 0 0 0
2253 1 9.241074584078573 1.0253099995897685 0.9173050106305076 0 0 0
1496 1 9.46089717550787 21.814878518004523 0.601785005010109 0 -1 0
1454 1 11.146262905948275 0.36081486672316027 0.5061551820147974 0 1 0
20 1 10.780893368998992 1.341175524289335 0.18609884781896713 0 0 0
10634 1 12.059272637206137 0.046117105920156984 1.0505732954725941 0 0 1
662 1 11.172531757921274 1.2027366383862952 1.2534361738981166 0 1 0
9352 1 11.837969333474172 2.165854706243865 0.4284827561727714 0 0 1
10016 1 12.654205868672802 1.5533499161889144 0.03177376102726784 0 0 1
1503 1 13.094914993389152 0.7898104884020989 0.6529800932572914 0 0 0
898 1 14.535454294269112 0.5014769256031312 21.83725638339418 0 0 -1
760 1 13.679202430144963 21.552159213419273 21.615045400579895 0 -1 -1
34 1 15.128383471944298 0.6644280228488911 0.8705447574482932 0 0 0
665 1 14.769329321325646 0.35209274231772336 1.7833057400822259 0 1 0
9965 1 15.396461861342711 0.5321868201131408 21.113809413342924 0 0 0
809 1 16.38237821529967 0.5992436846308652 1.0917565222349421 0 0 0
1414 1 17.004711795248838 0.7296087852628471 0.28682842280805365 0 0 0
1372 1 18.926758948217024 1.9833526594661783 0.9089039232622411 0 1 0
1320 1 18.13355703637537 0.41573512340927676 0.43828724465442204 0 1 0
682 1 17.831909265700148 1.1839722773496848 21.763222265300936 0 1 -1
9984 1 19.22028866315115 0.9252718623359135 0.9141933121048674 0 0 1
1427 1 20.143588842460204 1.0207026326060862 1.3602932050255334 0 1 0
1371 1 19.942252883158385 0.2349952433222611 0.6529967178919582 0 0 0
9988 1 20.818722766936553 1.387693376640634 0.09258094315303687 -1 0 1
9983 1 20.933368567547365 0.6199889833768311 0.7714061599170495 -1 0 1
830 1 20.677766271448903 0.3090779864186928 21.839664328415264 -1 0 -1
101 1 0.8958914034115362 2.4670826013627636 0.0985379563237516 0 0 0
1433 1 0.24745025190457523 2.3061008274297254 1.0805480339095155 0 1 0
10044 1 1.4902739208785887 1.5799564148486707 0.20692808827561407 0 0 0
54 1 2.5149981366172316 1.4928437470003535 0.49910982181260344 0 0 0
784 1 1.3596400277919787 2.408424422422167 1.7230492091593772 0 0 0
2855 1 1.9533390717073482 1.5409088625536635 1.5574687871618853 0 1 0
9384 1 1.999122765560016 2.337055947753734 0.8931755608594085 0 0 1
1482 1 2.988137121095658 2.4964945614563505 0.3663944086977498 0 0 0
787 1 3.617489617965315 1.5984521119418715 0.88456922239671 0 0 0
112 1 4.53425599936944 1.9944754877495372 1.1191034322684066 0 0 0
2288 1 2.891741392328631 2.1567282429381573 1.3324615709250514 0 0 0
61 1 5.353312748877766 2.280706535474171 0.3821025564638869 0 0 0
2197 1 5.556516329743654 1.811126166569635 1.344881738847245 0 0 0
925 1 5.971349767547951 2.7755556445244456 1.4961708139447796 0 0 0
740 1 6.077486627290238 0.8496021539553701 1.1792025802604513 0 0 0
21 1 6.337634808253177 2.281129480207622 0.6474727495919237 0 0 0
9341 1 6.656559267170952 1.8142432329183258 1.4508178766896118 0 0 1
121 1 8.267668966233343 2.4482892690571445 0.7469963736264258 0 0 0
795 1 8.569820964637033 3.8314031813913165 0.2548209082484362 0 0 0
29 1 8.840732195253475 1.6961639677763711 0.19038118900732842 0 0 0
19 1 9.19397321072741 2.061701791328124 1.1462809978226074 0 0 0
9958 1 10.292448348228936 1.5670987579932238 1.2690428592832093 0 0 0
10011 1 9.204138073518628 2.687789065742384 0.4123117836529329 0 0 1
2295 1 10.043556914293767 2.3249258851869867 2.0543554416832026 0 0 0
1637 1 11.597663375978218 2.1181237334735883 1.3880284217068117 0 0 0
1407 1 10.804173365828566 2.299805517029276 21.876575837136027 0 1 -1
10098 1 10.659345078116791 2.487386590112334 1.021043974434231 0 0 0
176 1 11.17266313413855 3.387879010256998 0.15005364082386743 0 0 0
804 1 12.684744065951236 2.6118923466975676 1.0296704621809523 0 0 0
850 1 12.940867648204044 2.47107221995836 21.96154111080798 0 0 -1
849 1 12.027976009091937 2.654841489734826 21.38985684249788 0 0 -1
669 1 13.416568122013976 1.9774815067603062 0.9832625862864546 0 0 0
851 1 15.315540841860239 2.319219843959172 0.1683828261504413 0 0 0
854 1 12.47985654725522 2.9689501412722596 2.115733818937954 0 0 0
86 1 14.752271324687703 3.073956950988713 21.971479047512105 0 0 -1
132 1 16.259087122768605 1.7392534366471841 1.6199891741441124 0 0 0
9973 1 15.740254867070096 1.4280694164494947 0.7099382178365701 0 0 0
42 1 18.00001476604647 1.4043324777356467 0.981809975564873 0 0 0
10114 1 16.304158281834066 2.329100796421459 0.7404729661220935 0 0 1
9931 1 18.11812266719957 2.009914635784348 0.16750428142844032 0 0 1
10033 1 17.18112925607288 2.2501549648147745 1.380275038946375 0 0 1
10025 1 16.936014195462825 1.5823033937208466 0.7644824396973262 0 0 1
46 1 18.706768289007538 2.1394090874230622 21.355253523540448 0 0 -1
9975 1 18.060847418395603 2.6802920960457013 1.0592926502834092 0 0 1
676 1 19.480239666535404 2.461407838036878 0.1675773272821181 0 1 0
10035 1 19.729845013737016 2.428756111898312 1.1636471970555293 -1 0 1
10637 1 19.87240120480565 1.5940458739787366 0.5275639033863817 0 0 0
10646 1 20.52318886835195 2.4621331221459135 0.2351474698881907 -1 1 1
774 1 21.588041837138803 1.9828914129909025 21.781708336500678 0 0 -1
53 1 20.866004991691018 1.9292122814051291 1.0017464713635076 -1 0 0
56 1 21.486985824746935 2.686176904968662 0.6547346296197586 -1 0 0
49 1 19.982200036554374 3.5063476617862923 0.8462368220550073 0 0 0
94 1 0.30854575114051835 3.178851421631245 0.6466388596468103 1 0 1
105 1 2.211499283727562 3.2349624138255133 0.47730763275871446 0 0 0
779 1 21.964989730511913 4.109665083713693 0.1475387394445696 -1 0 0
89 1 21.929185267730247 5.069280948281367 21.633460543101897 0 0 -1
915 1 1.3166046366737818 3.0431267547161163 0.9098391921964233 1 0 0
1520 1 21.510558636862182 4.832068140733993 0.8160476073436395 0 0 0
738 1 2.3487778050024883 3.998239323876392 1.1874415999023056 0 0 0
827 1 3.0287001774999345 3.7616073986069933 0.4406860094043454 0 0 0
9990 1 3.117456525999794 3.204669091240904 1.3845952684266403 0 0 0
739 1 4.149247481425601 3.716283854152417 0.8729118012083726 0 0 0
734 1 4.827631877500473 3.1350671320225296 0.1017787512117972 0 0 0
749 1 5.748083785930956 3.3928399151907676 0.6544598793435833 0 0 0
838 1 4.93934148172228 2.9776699724838585 1.2193406497847634 0 0 0
10049 1 7.045277191150846 2.8310006295798735 1.211362282492916 0 0 0
881 1 4.707847185851974 4.994128377630582 0.6431057547024934 0 0 0
1542 1 7.014413211476072 3.830950244836542 0.9907480636639666 0 0 0
1576 1 7.579552082470642 3.087988083832815 0.22853557798853946 0 0 0
837 1 6.8879156034700015 2.452415291593203 2.2069088893226025 0 0 0
10006 1 7.944795284673659 3.6393922689009335 1.0764467118495382 0 0 1
24 1 7.919291078460909 2.7980616394898687 1.6857898230295185 0 0 0
117 1 9.887775707575415 3.8779881962154263 0.3285470961270549 0 0 0
1583 1 9.743074378438777 2.8805177219118705 1.3007038725373639 0 0 0
840 1 9.204830522408276 4.6778466578609015 0.8991771157611572 0 0 0
1582 1 10.380292727831431 4.551597506983932 0.9811612656317614 0 0 0
10054 1 12.194147168588803 3.229234509003972 0.2769595631806266 0 0 0
846 1 11.601012226238932 3.1545180822369074 1.2360746035331525 0 0 0
9339 1 11.375243341360195 4.498498436154848 0.44283060598101576 0 0 1
1551 1 13.15616400989673 3.470795149365281 0.6357783233371174 0 0 0
171 1 12.368726623929978 4.20534983003704 0.3037599931318804 0 0 0
900 1 13.470215166228634 4.4178935706241305 0.2802098668006613 0 0 0
799 1 13.931539582868128 2.7045209020656813 0.4213281286859386 0 0 0
232 1 15.266075526847096 4.025444799459924 0.38207976894126167 0 0 0
1691 1 13.447474932716391 2.6676089191322263 2.0060085624286303 0 0 0
80 1 14.758353868943875 3.0737853460550415 1.0782515104220365 0 0 0
183 1 15.767852766546177 3.162498967037173 0.9635974905165655 0 0 0
10069 1 15.195938529452626 3.913953641469045 21.385436039521853 0 0 0
1459 1 15.06884007338807 3.9715429852223596 1.5566629740281799 0 0 0
895 1 15.876460983040912 3.336811291555675 21.961321495654275 0 0 -1
10110 1 16.77689876503759 3.2981992255806194 0.7072306900363703 0 0 0
993 1 17.44599372817578 3.185663369486062 1.7043896301908816 0 0 0
10074 1 17.2885882064151 2.5288706736321394 0.32892799559995145 0 0 0
9359 1 17.221390391759428 3.5997062414420653 21.73777940689931 0 0 0
10027 1 17.909736094139348 3.7013021503128187 0.5618468754763991 0 0 1
10118 1 18.65446422810686 2.950033173629327 0.3020767030574535 0 0 1
93 1 19.10982243656861 3.2886013982618367 1.2580596971435798 0 0 0
9361 1 19.429976473007223 3.502353711624235 21.850457476312364 0 0 0
91 1 19.22208702653335 4.177030739453907 1.6352293408973595 0 0 0
1471 1 21.178023247917956 3.673876257986196 0.6540235835896008 -1 0 0
864 1 20.57107571620674 4.394441124400003 1.1695436700109485 0 0 0
823 1 21.37721485099065 4.105875399822337 1.7422727236165305 -1 0 0
98 1 0.6104031267115738 4.8859848249467195 0.493550134090834 0 0 0
9373 1 1.100524085339357 4.039527112448607 0.6312993203746128 1 0 1
776 1 1.6918092903817685 4.89098854486633 0.9978266333040868 1 0 0
966 1 2.8183517787579575 4.817470685233032 0.6860283317171446 0 0 0
1571 1 2.2932832264904106 5.58273013971391 0.22602431049271385 0 0 0
163 1 3.8267948113394743 4.52920030527694 0.4171931349235166 0 0 0
781 1 4.095692556931569 4.880049750212679 1.4721627485659172 0 0 0
148 1 3.270187971642406 5.512549523329593 1.2681794539791509 0 0 0
10088 1 3.2159040059917317 5.097300430346676 21.801625011651613 0 0 0
1622 1 5.600242734223888 5.6558031455618725 0.6904131732480271 0 0 0
260 1 3.95379386849866 5.6178096854150485 0.615977305646508 0 0 0
885 1 7.073800267018013 4.907592903535417 0.46819607555962733 0 0 0
883 1 6.7283591519442325 6.107088380323591 2.0514769634196073 0 0 0
1575 1 6.536376810683141 5.258977741419426 1.3031171337130665 0 0 0
1539 1 7.516924439341572 4.87894343942717 1.4934419008063353 0 0 0
1584 1 8.124556135751133 4.61139005754058 0.6052643197267719 0 0 0
1545 1 7.299027842319828 5.849678649629529 0.8461722087320125 0 0 0
71 1 8.38323393067504 5.23199851560506 1.3460513313254425 0 0 0
169 1 8.328173753664096 6.207087036974533 0.9462376802190886 0 0 0
9437 1 9.053975507826053 6.108743205131877 1.7050399398384326 0 0 1
120 1 8.65415433129779 4.799838323484824 21.55914216439821 0 0 -1
939 1 11.461698292860145 5.994936487203597 2.4423736385488066 0 0 0
68 1 10.893252884291345 5.369607986057958 1.5658195675147026 0 0 0
227 1 9.693763935662298 5.53111551665717 1.2007137759493882 0 0 0
10149 1 11.804214920860016 5.886612771697485 1.3794054971328311 0 0 1
848 1 12.113004564250037 4.809851180897829 1.1511463879727253 0 0 0
10150 1 10.825171149612368 6.239087022254869 0.9733558201269528 0 0 0
228 1 12.701078536523333 5.200226085043918 0.4573388237830686 0 0 0
10244 1 14.307393552281424 4.689464984496695 0.9795492732866672 0 0 1
899 1 15.515189102486126 4.955324527327047 0.6714810098498493 0 0 0
907 1 16.08693208130155 4.180903560801343 1.1500199259007788 0 0 0
1642 1 14.924229751166244 5.809464558373771 21.810497399677356 0 0 -1
1645 1 15.749265961055736 5.983363745504735 1.268070200339502 0 0 0
140 1 17.11850965785095 4.287073731355755 1.106184070843617 0 0 1
130 1 16.679967843066304 5.205933382085739 0.5483216985353183 0 0 0
903 1 17.478921748662636 4.6628933585425365 0.015798057828401515 0 0 0
10073 1 16.503646405517834 4.190507472045207 0.15022759359575946 0 0 0
194 1 17.565425936173188 5.369782010338806 1.2585215573598663 0 0 0
1000 1 18.521555771993032 5.224691510215915 0.03247248531060714 0 0 0
10113 1 19.32163802928176 5.097920253392131 0.7271302010493658 0 0 0
948 1 19.625864975870517 5.600392966858382 21.896785930532804 0 0 -1
145 1 19.01918843871988 4.091236158815727 0.5639784931033669 -1 0 0
10127 1 19.693609450490243 5.958152803593131 1.1962376040988005 0 0 1
250 1 0.26643685480037227 5.612862569889551 0.9973568590844559 0 0 0
156 1 21.40645069560544 5.847286250902964 0.2596829513164337 -1 0 0
144 1 21.05826421033701 4.538537498044 21.975408656681083 0 0 -1
295 1 20.79015750759829 5.5283403856105755 1.4413373913437937 -1 0 0
912 1 19.857017208247576 5.022422470085394 1.7344455252687503 0 0 0
921 1 1.1137730973745719 5.94666366926719 0.5479358779548292 0 0 0
10043 1 21.717288177031378 6.820379693957309 0.36209252125107 -1 0 1
10270 1 0.5907294784145374 6.7273891594220885 1.1242266055019168 1 0 1
1616 1 2.2574574061669197 6.056474408567762 1.194273800907216 0 0 0
301 1 2.1024035843523308 6.6771635593812695 0.15021718944378132 0 0 0
9286 1 3.231117622467605 6.280216586981365 0.2537575049383246 0 0 1
10134 1 1.7545854549453663 7.9236486899851775 1.6208772639176647 0 0 0
7903 1 3.7609953724937775 5.9696860891011045 21.482728599988178 0 0 0
10138 1 4.106792197706517 6.703165731958195 0.5284848396948477 0 0 1
1011 1 3.102668444749904 6.489736881638887 1.397862489722983 0 0 0
9572 1 3.1853619681991585 7.3339297027132435 0.20585735772323896 0 0 1
10094 1 4.703408868795858 5.961289029069785 21.88893463883711 0 0 0
10137 1 5.022235756576098 6.408441910910027 0.8133984853772988 0 0 1
833 1 4.988968146645124 7.308228599449229 21.875290560575653 0 0 -1
882 1 5.652820644703333 6.525546027295805 21.9737589009275 0 0 -1
10096 1 6.423981673370903 5.826336257368375 0.2544191910356187 0 0 1
312 1 7.549143547514231 6.914749889219636 0.99252192529628 0 0 0
8617 1 7.549192320332185 6.686066826627929 0.027253242866973466 0 0 1
9491 1 8.451436771997678 7.3097767339791915 0.3369391571284279 0 0 1
10141 1 9.108510732068803 6.6120470252194945 0.5005498895090895 0 0 1
266 1 10.119762649637654 7.13651634032608 0.48785165959923144 0 0 0
9502 1 11.384226942991495 7.117674912906148 0.8508857043852076 0 0 1
9498 1 11.764788667847832 5.489730757190946 0.2536831853243272 0 0 1
235 1 12.478287934215956 7.9347221775269325 1.9754371212368413 0 0 0
233 1 12.923831227727463 5.746939426150736 1.2573390094371333 0 0 0
10159 1 14.750435431815529 6.596314820601803 1.4434639117735197 0 0 1
937 1 13.489046520977402 6.670967945444257 1.2568151094064357 0 0 0
10106 1 14.36550022373136 7.38165545636288 0.9675714519274228 0 0 1
10296 1 13.225549781701499 7.6123299898588455 1.0939229701043012 0 0 1
9545 1 12.364251855840301 6.336988118639388 0.615422796586494 0 0 1
1034 1 15.696832520897127 6.99983471061619 1.545959397389101 0 0 0
243 1 15.178121997191152 6.45625373862216 0.5256969309981587 0 0 0
10111 1 17.547976241740802 5.743634640172301 0.29110989919509556 0 0 1
1047 1 15.96946427713326 5.699175062674656 0.08920493016393047 0 0 0
10153 1 16.840164711606025 6.113199936924811 0.8529287920135448 0 0 0
245 1 17.2422271366526 6.985900983801782 0.4451595752289057 0 0 0
1693 1 18.460583163504076 5.861512346340106 0.8917774300349495 0 0 0
202 1 19.238956402824304 6.348391241893965 0.39616824444251986 -1 0 0
10211 1 19.81900242757292 7.009489034898471 1.0413748949783452 0 0 1
1698 1 17.705501964373394 6.382526534993109 1.5716245968040887 0 0 0
191 1 19.975599699286224 7.043813575358169 0.05052331477585593 0 0 1
10163 1 20.769654630721487 6.777907315113825 1.668142147905992 0 0 1
10082 1 21.516155208599876 6.2210877224400045 1.164641093123254 -1 0 1
10081 1 1.0342124126062402 8.239881362346386 1.0680824497930377 0 0 1
10218 1 0.10112368607254157 8.294223484565835 1.6554887729135592 0 0 1
958 1 1.6384260870882452 9.016739981887635 1.5030534074757789 0 0 0
10090 1 2.557241656968252 7.186050949068532 0.9462057294131002 0 0 0
10220 1 1.83811818951095 7.640492528560846 0.3102875295398505 0 0 0
10222 1 2.0834954075624768 8.392703653664915 0.7547605834383732 0 0 1
313 1 4.136900799283024 7.683321767922638 0.3758931973933098 0 0 0
255 1 3.221449027904848 8.441073513721701 0.7960287987336402 0 0 0
10183 1 3.5127557073665647 7.414566256304421 1.2274558448128126 0 0 0
10173 1 5.242350958401836 8.148289127984855 0.5561905014680321 0 0 1
10093 1 4.7134474950726695 7.328646005071909 1.1295338817546332 0 0 0
933 1 6.866935034451844 7.583433917603153 0.6294018111057844 0 0 0
216 1 6.922151073649302 8.865620452646581 1.3215352006590748 0 0 0
1671 1 6.169578295398509 8.533137847405184 0.7225787243931856 0 0 0
410 1 7.778566153353202 7.865024100751608 1.059760595544328 0 0 0
362 1 8.565854584144391 8.215112981949037 1.581286718550965 0 0 0
309 1 9.364303979957434 7.699473281799589 1.009652328648461 0 0 0
10231 1 9.77751106108304 8.94712899421761 0.21879787398994893 0 0 0
404 1 9.042982072793139 8.48864431596155 2.457327787434453 0 0 0
887 1 9.34949388203303 7.394580394890431 2.066006094797569 0 0 0
269 1 8.821581225682387 8.53998653269742 0.5340930683298263 0 0 0
10189 1 11.036230615088856 7.814307001153758 0.2937693605847344 0 0 0
318 1 10.669485868105296 8.543781153085288 1.8964827772327741 0 0 0
1066 1 10.318879099186558 8.343599126694022 0.8699595610026746 0 0 0
1773 1 11.80391478649953 8.511655900077345 0.13341291468239758 0 0 0
9453 1 12.208779732228267 7.753192127126611 0.6132204529612668 0 0 1
10194 1 12.237363454747442 8.69080611497597 1.029303991396336 0 0 1
10242 1 12.295087008883188 8.027104014051677 21.26336360134864 0 0 -1
10290 1 13.923698231102286 8.185122469220017 0.26708464143219435 0 0 0
9544 1 12.945428387739396 8.343257861596763 0.060868700842184 0 0 1
426 1 14.289593029396421 8.29250676091951 1.3528782097327818 0 0 0
174 1 15.609079017933324 7.753014960250782 0.9461737410557283 0 0 0
10250 1 14.951123908238147 8.353150693731349 0.4757449248804503 0 0 0
9405 1 16.122996415230183 7.105161771302205 0.28494359193633023 0 0 1
281 1 15.897076212660275 8.754945051070623 0.6771449822520271 0 0 0
331 1 16.68500762713904 7.983871284171616 0.9509993645359172 0 0 0
382 1 17.01620131620909 7.9311270924327495 21.93937336526318 0 0 -1
992 1 17.648509790579872 7.67171177809956 0.9948938426368498 0 0 0
10168 1 18.842162144235825 8.525329751619509 0.4264413771095976 0 0 0
376 1 17.669807808769615 8.609125973822367 0.3455087249537462 0 0 0
201 1 18.408109196153454 6.959912182400096 1.1193810878042487 0 0 0
10119 1 20.88389870993119 7.2665088230483725 0.6823577741516598 0 0 1
193 1 19.96476366787537 8.06553730017684 1.1282740112871454 0 0 0
10219 1 21.226552755669832 8.612665283125443 0.6502553545920373 -1 0 1
241 1 19.06104400039003 7.407901709633964 0.566522614683899 0 0 0
196 1 21.59885531630953 9.353510401221317 1.228430895567619 0 0 0
10311 1 21.5420462039166 9.696643868604413 0.17919936724398833 0 0 1
1612 1 21.97864507935803 7.533752722294731 1.058363081339642 0 0 0
1699 1 20.99877458302398 8.105823962567799 1.4646362385988145 0 0 0
10268 1 0.34072727641433537 8.792075181567313 0.6740346955525299 1 0 1
10171 1 1.406597331048862 9.504600800188223 0.7175513748023963 0 0 1
10360 1 0.40432643769881466 10.22929281784461 0.7496197794151064 1 0 1
393 1 1.065848936471446 8.615261844759404 0.12022174873325404 0 0 1
10318 1 2.571443419326535 9.290243737236853 0.977657777397879 0 0 1
1010 1 2.4325510017485845 9.60830807763327 2.1480023249085805 0 0 0
303 1 4.298076758590598 8.619066993917953 0.5778822926324028 0 0 0
1054 1 4.489916898401116 9.54746432075815 0.1663827002779379 0 0 0
347 1 2.9495736831470887 9.861142656381908 21.6803832816923 0 0 -1
9568 1 3.6011617481473754 8.719184053693942 21.822706195045516 0 0 0
394 1 5.644981112744359 9.388565350771623 0.6920082927129504 0 0 0
1016 1 5.225360006622276 8.929868404344782 1.5633540206894732 0 0 0
10367 1 4.394990740842798 9.459278009911934 1.3269546588969041 0 0 1
1675 1 7.702807605823291 8.714108082562857 0.4037614608372036 0 0 0
9423 1 6.156912883646732 9.76139400217994 1.5668469544829398 0 0 1
212 1 8.08136322252646 10.147960554184312 1.8243122242215535 0 0 0
1110 1 9.115554254077649 10.204279093940668 1.3960457735990541 0 0 0
1017 1 7.92758069471994 8.965890989833959 1.3763944678556708 0 0 0
8829 1 8.301589638763545 9.747599035198093 0.7772810862139257 0 0 1
1031 1 10.201507912737794 9.33231807212922 1.1401639644496466 0 0 0
369 1 10.041063490404216 10.35029589839257 1.4949279459897284 0 0 0
10234 1 9.701830893706125 8.461460834537688 1.728177937581227 0 0 1
311 1 9.584375735157828 9.363534146842715 2.104558581347377 0 0 0
8111 1 8.904889940033792 9.176075771396954 1.3920145549385508 0 0 1
379 1 11.062464192473627 10.19917660808922 1.140787183077727 0 0 0
367 1 10.77601525983562 9.354445486687379 0.32296967331390003 0 0 0
320 1 11.227982535930632 8.83270255806671 1.018406288627622 0 0 0
378 1 12.784280148513304 9.611890315058465 1.135881522588079 0 0 0
368 1 11.818726905909793 9.51393712273602 1.6907334956079685 0 0 0
372 1 12.297762503081092 10.45437730081019 0.5077470698755085 0 0 0
9503 1 14.469992795745087 10.236704309774774 0.17187433396398458 0 0 1
10291 1 12.72801694831051 9.400829563967026 21.841950996708313 0 0 -1
417 1 14.385216703207634 9.203130422383692 0.9047910806364068 0 0 0
1690 1 13.715030589189077 10.172175868127491 0.884069584000758 0 0 0
10294 1 13.460902742228116 10.212331204014633 21.88395642144822 0 0 0
1044 1 15.302458035622749 9.565369402953381 0.5944050828367736 0 0 0
375 1 14.509565133874391 11.113918040777587 21.648425100696237 0 0 -1
1041 1 14.50190913601796 9.80023659603821 1.7272754587087855 0 0 0
1087 1 16.309225510926698 9.870927463688107 0.46426205309281393 0 0 0
10200 1 16.872950783302898 8.933197767801706 0.9279298159373692 0 0 1
10247 1 17.998851479281413 9.405356761322368 0.8454142195279171 0 0 1
1043 1 18.23465826320399 9.251937223407053 21.736323706379302 0 0 -1
10256 1 18.9537977995992 9.078473342084859 1.3415316027406288 0 0 0
1052 1 18.903675859451926 9.580415497362527 0.37116865951651823 0 0 0
10166 1 19.046450035667053 10.078281532381673 21.522400280878795 0 0 0
10261 1 19.78371322979412 8.93943317338179 0.49068107695395163 0 0 1
1046 1 20.70041153970868 9.708957396962232 0.6994579132425156 0 0 0
337 1 20.703574111639686 9.124841438638855 1.831352907420916 0 0 0
1095 1 19.871913096790646 9.420567189845471 1.3539779831271899 -1 0 0
10216 1 21.73157011349452 10.785462936081403 0.05349048088272156 -1 0 1
290 1 21.51233192614324 10.651203403044066 1.0064860981351578 0 0 0
8906 1 0.3759439574546414 10.977794854776386 1.4192137680150179 0 0 1
9702 1 1.1596500617333325 12.012725361416507 1.248908542426979 0 0 1
9570 1 2.15386516624732 11.08566204725461 0.3779176493344712 0 0 1
298 1 1.1798078994831056 11.010512632154658 0.8794296218901655 0 0 0
346 1 1.4943889659989074 11.171179395860836 1.8617218912165487 0 0 0
2521 1 2.098737814960422 10.273561989220482 1.3834267856297104 1 0 0
9619 1 3.031610951088453 10.36426929470777 0.7068209117361991 0 0 1
8964 1 2.8248186010970158 10.931433671885825 1.6843314521436892 0 0 1
396 1 4.089359308768943 10.383623999279497 0.9409256885097891 0 0 0
10282 1 3.7590683951718997 11.192794150155295 1.572897246842905 0 0 1
9567 1 3.5158616116253736 9.490158509053495 0.5256158990150601 0 0 1
2437 1 4.876632692717144 10.426270586712103 21.756910676046246 0 0 -1
10272 1 4.7091960878068635 11.205444500380393 0.5525144001706663 0 0 0
2533 1 4.818431466389879 11.008563204542558 1.7904692701035028 0 0 0
1761 1 5.0864459316717685 10.295334416760161 0.8814221535448067 0 0 0
10280 1 6.703421484304967 11.320713261292505 0.1954712931828915 0 0 1
10275 1 5.400464223798208 10.892920014776365 20.93304136012408 0 0 0
1162 1 6.538588508658116 11.511771639844781 1.3918377564502864 0 0 0
305 1 6.291881280368315 10.656498525559417 0.8363848113170662 0 0 0
1113 1 7.303043463545242 11.050268319712325 0.9917667419325769 0 0 0
356 1 7.707105911161966 11.282564746563757 0.08929841395492899 0 0 0
1067 1 8.347724314613705 11.987576713911391 0.8101506850236583 0 0 0
10278 1 7.779214568287376 11.50699357449508 1.7906696312732264 0 0 1
1765 1 8.392730107213325 10.887340545497322 1.0384550955257983 0 0 0
463 1 9.461611563255998 11.24119109631711 1.2765838031968486 0 0 0
1069 1 10.284118055036311 10.211015996797395 0.4670999947387603 0 0 0
10295 1 10.611393854292963 11.124088585945495 1.019706836568988 0 0 1
10243 1 11.389740491806167 10.764858047650504 0.36461274073586747 0 0 0
10285 1 10.436428917363013 11.18549408835777 0.015062125502441922 0 0 1
1033 1 11.581943246725908 11.08586492533139 1.3279885323790939 0 0 0
9638 1 12.434237743002331 11.688022150723139 0.6841805648867353 0 0 1
10341 1 12.575891682868976 11.584879405106127 1.7445196160419834 0 0 0
9636 1 13.573363066240203 11.125178572530329 0.3231851259140404 0 0 1
1742 1 14.4645433596993 11.19292194205764 0.8163513634506664 0 0 0
418 1 13.370572572356984 12.325092553890988 0.7930780359900198 0 0 0
1741 1 15.422866366066035 11.568342530587545 1.2247163142802464 0 0 0
10346 1 15.13915261570519 10.532655176736794 1.384747726216624 0 0 1
10401 1 14.367954123907126 11.725388712472567 1.7710499074210595 0 0 1
1048 1 17.08289460122359 10.733531120092096 1.7903549245238588 0 0 0
380 1 16.292004506493164 10.807689743566671 0.9546273428366007 0 0 0
9605 1 17.07733344422707 11.673477814939591 0.5737454233141869 0 0 1
1743 1 18.07818995575404 10.277358621044312 0.031198148360872584 0 0 0
1093 1 18.057796968594115 10.363911712138966 1.3232710186759 0 0 0
9603 1 18.022714609411324 11.202922399228724 0.5151818167081933 0 0 1
8952 1 18.995001460746263 10.619133334979031 0.3678831434012911 -1 0 1
10257 1 19.01389840038912 10.063853728022027 1.4541188011750266 0 0 0
1793 1 19.68095944259543 11.502905159429432 0.9200412579233865 0 0 0
340 1 21.532812651430188 11.357026950806288 2.274004831470917 0 0 0
339 1 0.3752467081642159 11.737859074694548 0.6052494023516427 1 0 0
10362 1 20.940194622121584 11.567156621242008 0.4352337793690642 0 0 1
10317 1 19.823727422843884 9.920235367412529 0.15535555629815617 -1 0 1
1745 1 21.53039036061575 11.611370937139144 1.2970335385602179 0 0 0
9616 1 0.9729288813863205 12.780045904991994 0.4317393142577973 0 0 1
440 1 0.9787694349866328 13.391741301352221 1.4931630993159166 1 0 0
1102 1 0.42188484005720794 12.686413279194767 1.2425878329881197 0 0 0
1062 1 1.8207570669692053 12.822400215714756 1.20848637370155 0 0 0
400 1 2.353811833044388 11.84469598137966 1.1566041240578102 0 0 0
8813 1 2.1955690045750695 12.949438874738764 0.36065481173005337 0 0 1
9662 1 2.8426525772504605 13.075575519822024 1.25523609940173 0 0 1
9006 1 3.2106310951263333 12.095897149372275 1.4836354313211908 0 0 1
9575 1 3.2109644100956305 11.507444289670486 0.651811139205145 0 0 1
1013 1 4.0764526043281055 11.940020879331996 0.7918217456087367 0 0 0
1108 1 3.29008179472217 12.585131993438482 0.46396522016784547 0 0 0
355 1 4.221174740398458 12.894004847471482 0.3358597893980257 0 0 1
9617 1 3.8746568129100747 12.83644915276022 1.3409895612385596 0 0 1
1769 1 5.554124883975293 11.531402247564928 0.9245070289975064 0 0 0
10371 1 4.8819094711107995 12.541512446125912 1.2392812378628817 0 0 1
10375 1 5.954203642112466 12.389031800940254 1.2231690507821178 0 0 0
2484 1 5.669586413816818 11.165573332292059 21.935915337550885 0 0 -1
1012 1 6.809151492132176 12.893192739042936 0.8062006882424987 0 0 0
10283 1 6.434880187148494 11.853923581558456 21.298043719832126 0 0 0
1722 1 7.362612666579237 12.090659692662419 1.0301130707828947 0 0 0
358 1 8.344556117237298 12.148687101775794 21.789965918438444 0 0 -1
8932 1 8.750378220756879 13.080422360698826 0.16438632179189044 0 0 1
10284 1 10.03430828036236 12.107315100313448 1.0567384533713287 0 0 0
1210 1 9.804609797891839 13.015044040610126 0.3982688638916635 0 0 0
9586 1 9.271424767391835 12.004249766686607 0.4033974997406386 0 0 1
1072 1 10.801008224096773 12.57197274442371 1.8635189134843984 0 0 0
10235 1 11.037237061948227 11.911757267022832 0.6264332211140442 0 0 0
9641 1 10.727237302863665 12.859481795178308 0.8528177239282079 0 0 1
10343 1 11.66221001311807 12.208478767750629 1.3788755972188553 0 0 1
10386 1 12.578722019730312 12.634546225595967 1.4097297532731738 0 0 0
467 1 11.487438481267406 13.190120707156655 1.4664532793449758 0 0 0
10340 1 13.471627684438568 13.020504685943632 1.6980522366952793 0 0 1
381 1 14.120810817018029 13.190430529128609 0.5045423266271198 0 0 0
425 1 14.040220546768216 14.040222033581559 2.1998269803633868 0 0 0
422 1 14.511253350540805 12.312512236238339 0.8834596121985442 0 0 0
527 1 15.502649741628451 12.569092153856186 1.4111403178215203 0 0 0
9608 1 16.750065439061924 11.697293937729505 1.4679641003599138 0 0 1
10350 1 16.187839754128976 12.164189867492468 0.8047361548206063 0 0 0
1790 1 17.898684249076265 12.116465477431225 0.952843942497273 0 0 0
8948 1 18.86108153239888 11.756792856343733 0.4440409957703211 0 0 1
10406 1 18.012411244160127 13.130281965218849 1.4869452525043827 0 0 1
1135 1 17.37641990461853 13.408231554531595 2.5205677294733984 0 0 0