LAMMPS data file via write_data, version 7 Feb 2024, timestep = 25000, units = lj

5831 atoms
1 atom types

0 18 xlo xhi
0 18 ylo yhi
0 18 zlo zhi

Masses

1 1

Pair Coeffs # lj/cut

1 1 1

Atoms # atomic

488 1 1.171300581978301 1.0504324478905167 1.6831206235867637 0 0 0
5292 1 0.945158256566226 0.9318442378934116 0.6173701997494049 0 1 1
4 1 0.7366475069968047 17.931483919468086 0.33854564058675546 1 -1 0
558 1 2.3372338967718256 1.3572051716090487 1.8313409440933655 1 0 0
5371 1 1.1539599894426984 0.5505125839580931 17.645231987219947 1 0 -1
485 1 2.7371987222398038 0.8759693077814741 0.9609807169766723 0 0 0
5300 1 2.156962097652385 0.9825686870961554 17.72293418041105 0 1 -1
1 1 4.029347467543251 0.8992034012881148 0.5365737129740078 0 0 0
492 1 4.784571835815554 0.13166647835640818 0.5668026980348226 0 0 0
5389 1 6.240549100582912 0.08833726520971834 1.5099475943571514 0 0 0
1910 1 5.0975790435866 0.5489496761335404 1.500612344254717 0 0 0
934 1 4.472249416728165 17.562407187717938 1.5542024719539032 0 0 0
462 1 5.882133479209855 0.8045041219061656 0.912472132262083 0 1 0
457 1 6.103023932111879 1.797919561935641 0.6603421699237789 0 1 0
5390 1 6.900464279876334 0.8418236580452787 1.0690086517562318 0 0 1
862 1 7.2017505465008735 1.5981430349713557 0.43959621487861494 0 1 0
5352 1 7.631948754322571 0.3301197631741356 0.6848272872675165 0 0 0
499 1 8.104609472317335 1.233760154959358 0.6141079270973824 0 0 0
101 1 9.825750594816204 1.6006604219033416 1.3244968800797636 0 0 0
5394 1 9.579215033208312 0.003138903448178354 0.09084771329089587 0 0 0
1052 1 8.964664321490101 0.5440324714538577 0.7660340880059178 0 0 0
903 1 9.829884534975996 0.9712176557641412 0.21259459722280277 0 1 0
27 1 10.751008213102029 1.172124632159493 1.1004937776769865 0 0 0
503 1 11.494977368561004 1.6315178739679022 0.5624339325836138 0 0 0
4892 1 11.65465047737717 0.6156478558473854 0.8251203330608582 0 0 1
5782 1 12.457854939872593 1.3186188255543076 1.122293331225051 0 1 1
4882 1 12.445044778509873 1.5737911709345238 0.17261692321693492 0 0 1
5825 1 13.444354886001506 0.4266512279528456 0.38565151054792474 0 0 1
5319 1 13.424971481678865 1.0202059196049544 1.494692041200828 0 1 0
1391 1 13.225020757702318 0.33088217662729424 17.330783346511314 0 1 -1
5281 1 14.327778253944432 0.2521197852221748 1.0238416417930074 0 1 1
5783 1 14.075720591460508 1.0484137745794218 17.810889455362275 0 1 0
507 1 15.326744392694582 1.5218032299242674 1.1746901499277422 0 0 0
79 1 16.129124021738875 0.8085018207531549 1.0010207835218392 0 0 0
431 1 16.132684177012468 17.91877803809099 1.6311014867859959 0 0 1
120 1 0.1669644662221236 0.9691424452774168 1.2047073462586797 0 0 0
5212 1 17.036554525494566 0.5268704210092321 1.1671595972224773 -1 1 1
480 1 17.719441195880687 17.935365521844002 0.679940864745402 -1 -1 1
1005 1 1.789508762741829 1.3728303257699883 0.7957205018123661 0 0 0
1000 1 2.058025014493862 1.9567608210087526 0.05232004217026926 0 0 0
54 1 3.0309076406653275 1.3650350834528342 0.0019682228653650213 0 0 0
578 1 2.372815098920414 2.390149594513207 1.733522708208088 0 0 0
43 1 3.777188775061576 1.938812082264105 0.5835919887089412 0 0 0
1047 1 4.336649078653569 1.673877871506119 17.7100250058414 0 0 -1
611 1 3.381519988545644 1.36769009588318 1.4622322224506767 0 0 0
528 1 4.71260681840896 1.4058433453036467 1.015050200826283 0 0 0
455 1 5.225674133212014 1.4638025621322999 0.16182308421438768 0 1 0
18 1 5.088871135195739 2.560924274522205 1.9758734830878015 0 0 0
5395 1 5.573619529980874 3.2000329495847097 0.15795166921404302 0 0 0
5761 1 4.766905915711298 2.389610721060523 0.6596107820597685 0 1 1
945 1 6.881154038830173 2.409018253417847 0.8384831565102621 0 0 0
5314 1 6.21503930980693 2.401832312617879 17.81697508331041 0 1 0
4911 1 7.313131656679408 2.563085083792657 17.979562267087527 0 0 0
57 1 7.616886286484246 1.7392754787342914 1.3445708166512607 0 0 0
4952 1 8.138387093493098 2.4711802329915478 0.6163064287088902 0 0 1
184 1 7.6188659876841704 3.408461997717952 0.48665370803287533 0 0 0
5474 1 8.554586739245336 3.7070721795711234 0.46511811773318823 0 0 1
583 1 10.741640142042037 2.1774809109350746 1.581740384366985 0 0 0
5440 1 9.139703888422934 2.669171694682167 0.19552502947804692 0 0 0
143 1 10.007181566872918 2.716444052872192 1.017916599680413 0 0 0
4953 1 9.070405660956613 1.8095699404569794 0.6053413532895754 0 0 1
4920 1 11.185550788852836 2.7034494270662495 0.7895651891338024 0 0 1
5398 1 12.788841945029441 3.429159030873615 0.1962226267178534 0 0 0
509 1 11.53251517724594 3.0775850525799107 1.6160243341245737 0 0 0
114 1 13.586232872770312 1.469694853268674 0.5276919781711569 0 0 0
461 1 12.02801714772437 2.2427073354642126 1.1416681602624756 0 1 0
4962 1 12.587486585209934 3.0257265900100188 1.1675897351113296 0 0 1
65 1 14.370398801829792 1.1503688107296024 1.3793275086309909 0 0 0
478 1 14.773642258068007 1.544648403080749 0.28429809005771745 0 1 0
510 1 14.298493124131994 2.08232051876985 0.8786277403192834 0 0 0
477 1 14.090290492529322 2.2004070085113248 17.946256437195792 0 1 -1
35 1 16.35324543997209 1.8160846345126616 1.2920591267862065 0 0 0
68 1 16.907962685884947 3.426796355190603 0.7444378871413414 0 0 0
5488 1 15.149644993500294 2.554094036283617 0.19344247327947053 0 0 1
5453 1 16.463183773720967 2.50539080361024 0.5822307122565923 0 0 0
37 1 15.776330539002462 1.5215432691535522 0.31271791743985244 0 0 0
5828 1 0.6525153502032893 1.9072713366247618 1.4227542746102528 1 0 1
566 1 17.077416442472217 1.3785643564844767 0.6032274181532885 -1 0 0
521 1 17.615746223123303 2.2743969313857284 1.3819492148587165 0 0 0
607 1 1.1291490552872765 2.90120373928137 1.6026524816471992 0 0 0
82 1 1.7748386466583412 2.4413461721584078 0.841679113617249 1 0 0
571 1 1.6477415563349325 3.509848130365661 0.7175809933814045 0 0 0
127 1 2.518936238738214 3.1964828849812728 0.7198386257234408 0 0 0
5456 1 1.873771363613151 3.548552345355446 1.738147167251709 0 0 1
11 1 4.479622411749159 3.52000643160167 0.311546462553743 0 0 0
5466 1 3.4695550764504812 3.427191132770388 0.19596798322992356 0 0 1
95 1 4.961285717550534 3.5644317065976665 17.19117572493093 0 0 -1
92 1 4.496234906434019 4.482303651267456 1.3140737519293328 0 0 0
47 1 3.242822883720778 2.541394779616161 1.2061897623457951 0 0 0
56 1 3.464183404814612 4.274367787390796 0.8227923388391736 0 0 0
5434 1 4.874065271869858 3.339048933284175 1.209631927710113 0 0 0
4914 1 6.025182402310542 3.876984309369355 0.8377967028546793 0 0 1
14 1 5.6654425783325655 3.5072837452331402 1.8202603591834903 0 0 0
1015 1 6.759191067145704 3.25277744897135 1.460288287649633 0 0 0
5430 1 6.607019447182417 3.2765072802489956 0.25323560964756964 0 0 0
5515 1 6.9199004029176185 4.177615837735088 0.5455045623286946 0 0 1
5436 1 7.887332340346249 4.521248158566023 0.1398953873064649 0 0 1
670 1 8.481332025491067 3.616366069984108 1.6859945528210674 0 0 0
4876 1 10.437516400717087 3.2794566122119404 0.2726698893927812 0 0 1
146 1 9.618250495408118 3.6014465320732363 0.721051867491415 0 0 0
139 1 11.728819881897985 3.699276790182737 0.5663973864934875 0 0 0
589 1 12.084308125612472 4.981619724841199 0.9627714677477538 0 0 0
624 1 11.507507931610713 4.083648488281269 1.5328737891410846 0 0 0
113 1 13.495436167798049 3.855585063112228 0.7663827553911683 0 0 0
5403 1 12.242298890312636 4.456325513239301 0.0749831977599873 0 0 1
5446 1 13.229921359998238 4.831020540397759 0.4144222215683758 0 0 1
74 1 14.250762899525089 3.152069062654358 0.3631416631335124 0 0 1
33 1 13.803784294743608 2.8561254385186063 1.285593491119397 0 0 0
5487 1 15.370906648499805 4.26793314040571 0.7309920874595901 0 0 1
66 1 14.299727403771586 4.18040909218359 1.247626982668727 0 0 0
5361 1 14.22024303008359 4.2605346242769935 0.17942792818877512 0 0 1
5407 1 14.789617831785376 3.219854238803219 1.3055966029691453 0 0 0
5367 1 15.808325343031017 3.283845453157548 0.49088856597357705 0 0 0
649 1 0.5461333949555767 3.771255734640654 0.021689866216601045 0 0 0
519 1 0.09216993118875955 1.892957464066727 0.4602738903427907 1 0 0
46 1 17.635946675211358 4.24057371239245 1.0039907522882792 -1 0 0
1077 1 17.72760745568401 3.0723603342412824 0.3090598994997448 -1 0 0
5576 1 17.28351258249612 3.9824765352326046 17.983362610877066 0 0 0
4453 1 1.0679673524068372 4.430925204079999 0.6467702517662139 0 0 1
645 1 1.330643807038579 5.2969683235439575 1.2277205063291659 0 0 0
5460 1 1.5877835711778534 4.046159244905232 17.805265177067017 0 0 -1
5079 1 0.837144792846396 5.717548066517398 0.5134605844710031 1 0 1
93 1 2.466685414103947 4.200457393365277 0.47281677971030794 0 0 0
87 1 1.903506787835955 4.466185512479701 1.3191352389844535 0 0 0
691 1 2.898666217541471 3.76043078568343 1.5321158004516453 0 0 0
122 1 2.6004825303820387 5.100327029840444 0.9157876147510928 0 0 0
5492 1 1.7720509973692755 4.973441299452835 0.209067235818151 0 0 0
171 1 3.2314838837379045 5.049308325390103 0.0421393605906718 0 0 0
648 1 3.960477917298155 5.290400054543625 0.7356559570165082 0 0 0
608 1 4.113334743943826 4.361246416299153 0.0616215088049624 0 0 0
5462 1 3.292825235100284 6.181670015007287 0.3576154188395284 0 0 0
5384 1 4.824457280483583 5.505004620063816 1.523322677328557 0 0 0
165 1 5.923718204241757 4.83925617873379 0.4996019269952993 0 0 0
5378 1 4.951531900513019 5.367751104173355 0.3964316997939749 0 0 1
133 1 6.210620725359239 4.18229615746358 17.76023159017587 0 0 -1
5101 1 7.2082048609113025 5.877321449741878 0.6650253203617337 0 0 1
658 1 6.011681162465775 5.659031101193106 1.241835143410036 0 0 0
121 1 5.331522355326485 6.319724608360673 0.7702038094177741 0 0 1
175 1 6.870301971741785 4.999541366143008 0.08334973348498387 0 0 0
659 1 7.950040400345534 5.330944234158134 1.0713456800624794 0 0 0
5478 1 7.8393672748222585 5.49605144804478 17.943941250006446 0 0 0
5442 1 8.688839187321037 4.546875682194963 1.0288684506551287 0 0 1
5397 1 10.30859867584188 4.506209663095598 17.99846266277269 0 0 0
5472 1 9.72453658527301 5.120204418098583 0.8997908211478002 0 0 0
701 1 8.754074750566392 5.367076811245435 0.3782795614224337 0 0 0
5443 1 10.679516282584048 5.468139363624349 0.48520260642144947 0 0 1
5522 1 11.19191735376313 5.116219298730322 1.500070776763767 0 0 1
706 1 11.571149012746767 6.053079138436598 1.0128317121071753 0 0 0
4954 1 11.18229806047763 4.559728906128373 0.6924260896758303 0 0 1
5004 1 12.915011447031956 5.4430521371072125 1.2211380569059185 0 0 1
105 1 12.538605943073446 5.489382518138658 0.1648041691290183 0 0 0
5484 1 12.001718231695165 5.7299682220688055 1.9574050412091755 0 0 0
153 1 12.585927425652189 6.395210331569611 1.1443174500082767 0 0 1
191 1 14.392940517036331 5.26449488610011 0.6374237317392331 0 0 0
5041 1 13.848263922281372 6.141109453214672 1.3924755791047598 0 0 1
759 1 14.871990448633518 6.125372024374135 1.7021697393633706 0 0 0
151 1 16.28398738592724 5.1600227263852245 17.999886881745567 0 0 -1
200 1 16.39726007217218 5.430318841145065 1.0453738737982987 0 0 0
641 1 16.496216541101543 4.416860085344875 0.8998505508050871 0 0 0
4967 1 15.036445942127896 5.057189216800339 1.6915112339880125 0 0 1
83 1 17.20282053053426 5.141848738804972 0.5317934171896093 -1 0 0
598 1 0.03249259680913967 4.688377404235651 0.03226362991264014 1 0 0
683 1 17.956831969411354 6.0372594781648035 0.7451449619032933 -1 0 0
647 1 0.3105785960369224 5.034262343881416 1.0274815174710459 0 0 0
640 1 1.6677237854675282 6.564834868998595 0.006210342484237418 1 0 0
769 1 1.515679714155002 6.765652167748908 1.011341980139676 0 0 0
5458 1 0.49839789945032625 6.758775852798073 0.3240936505493142 0 0 1
764 1 1.42588551077235 7.55352862967354 0.09748158047362726 1 0 0
5461 1 2.556664396090814 5.7737149424170084 17.874555948441575 0 0 0
5542 1 2.575143127432138 6.815747968009598 0.8434068883730919 0 0 1
1653 1 1.9590712129929584 5.893823437760802 0.80183243533615 0 0 0
5014 1 1.5657404036732052 7.059984472701015 17.166101515897008 0 0 0
210 1 3.9895960394660257 5.859603651012505 1.9146683051105262 0 0 0
5464 1 3.60275669921234 7.1744261689357725 0.4357555034592229 0 0 0
4985 1 4.172791391792852 6.236320071522371 0.7539900990406622 0 0 1
5060 1 5.7487069385415435 6.9819505030065985 17.998786914930644 0 0 0
169 1 4.175365954763652 7.783224889650256 17.794604145539147 0 0 0
5594 1 5.524299837163004 7.960694622492608 0.03446196861060156 0 0 1
4464 1 4.969139687364601 7.266634134670177 0.6145062432991417 0 0 1
5510 1 5.874018706436436 6.625942417840368 1.7128393394356816 0 0 1
615 1 6.301934805641342 6.535794686782628 0.8233134307054109 0 0 0
5597 1 7.4809684518710196 6.8864695368647935 0.7314495244594534 0 0 1
220 1 7.009134290749381 7.023437715454507 1.6074695350425017 0 0 1
5028 1 8.300489659274376 6.328634385097764 0.6164545640127211 0 0 1
5555 1 8.8339488088523 6.944027827988396 1.151657829262743 0 0 1
5509 1 7.994691127659998 6.466317892844011 1.6839307981891274 0 0 1
5552 1 7.394286599883027 6.353338907817869 17.801782231264948 0 0 0
668 1 9.688090485470024 6.468154507300903 1.795725067663275 0 0 0
5444 1 9.513362978079023 6.11618422770803 0.6610998151074305 0 0 1
5569 1 9.54556750237928 7.323552447640586 0.39640172480389424 0 0 0
5564 1 9.462211835169523 7.8654967307638115 17.387948786427533 0 0 0
551 1 11.280412680326842 6.753036830160507 1.6307090764133274 0 0 0
628 1 10.286117098008274 6.795394446175316 0.9356361851790846 0 0 0
707 1 10.417872529830127 5.88239247056994 1.3938566813669868 0 0 0
5567 1 11.26467816597862 6.980400068779755 0.5475974199513401 0 0 1
5523 1 10.374292714541859 6.381025168709497 17.966539893637496 0 0 0
147 1 11.802024485860699 7.5303279725009755 1.3913806274829024 0 0 0
145 1 13.565085236619467 6.956360637463013 0.913089670807759 0 0 0
5027 1 12.16508109892175 7.296480258573083 0.3781647237179015 0 0 1
5080 1 13.23461007122236 6.767480582058513 1.8832076800559354 0 0 1
5527 1 14.698895076293438 6.218580003983204 0.6477923814654121 0 0 0
718 1 14.716960106250099 7.12382623184221 1.3021237399660446 0 0 0
5573 1 15.617563947000596 6.485810824885821 1.0835421444562998 0 0 0
233 1 17.242462768711476 6.345199604408748 17.722179544425874 0 0 -1
5566 1 14.996901777702073 7.037244239182791 17.89636571324404 0 0 -1
5574 1 15.882297281111116 7.27940498852164 0.44696009475004145 0 0 1
680 1 17.575423738766453 7.041436906349462 0.5344036737896781 0 0 0
5570 1 17.18695726377907 6.003422552521414 1.5501826998784418 0 0 1
602 1 0.580732388631641 7.355778375226853 1.13066607525784 0 0 0
762 1 1.7374077742213527 7.879307933657308 1.2794150454142899 1 0 0
202 1 0.8339583951491253 8.501726135192534 0.6969804729387316 0 0 0
163 1 2.3259953710231502 7.716178415662269 0.46876857360828156 0 0 1
5504 1 2.4780656220017203 8.934625607527542 1.0275739430250108 0 0 1
5463 1 2.797414649300308 8.988222008718207 0.021876253483466314 0 0 1
5584 1 2.5696074263249873 7.037471814437975 17.770098483562442 0 0 0
5499 1 4.193806847290426 7.961939136949786 0.8011373221849579 0 0 0
5590 1 3.718400145314891 8.995139390063473 0.8948893259822105 0 0 0
204 1 3.200214849651933 7.96395196235865 1.2643114231920172 0 0 0
5544 1 3.216016771419017 8.12160382043987 0.23395456609159782 0 0 1
653 1 4.4315348939892925 8.129158254417204 1.7889035226429457 0 0 0
5605 1 5.3761301014223495 8.283764933783527 1.0645225095762525 0 0 0
248 1 4.625644968480778 8.644017691605866 0.18970749785038873 0 0 0
5593 1 5.457923834649712 9.097754152769209 0.5676007070406176 0 0 0
250 1 6.747361491469515 7.5144139418976135 0.10760009560310631 0 0 0
253 1 6.350477740929591 8.681203995374007 0.9317494381006508 0 0 0
5560 1 7.07971032385639 7.951210795144207 1.0426630374003605 0 0 1
743 1 7.601093672625684 8.140542283096918 0.16075020538342566 0 0 0
5558 1 8.328973827414348 8.170018994751691 17.520071755880476 0 0 0
218 1 9.23034144811037 8.814960207370294 1.2384296361790998 0 0 0
259 1 7.584659292488172 8.675991171504235 1.4180239061421924 0 0 0
265 1 9.867296343087395 9.596108060633068 1.1788819188114306 0 0 0
5513 1 10.370076073151132 8.592822814545196 17.681697194749546 0 0 -1
5603 1 8.848578563771312 7.949415885460937 0.7081814988156843 0 0 1
174 1 9.41401288048934 8.550108142795926 0.22958561469135605 0 0 0
1185 1 11.338721518260021 8.940342322207192 17.833864242336066 0 0 -1
5517 1 11.38894360830432 8.035128403790788 0.3228848248089903 0 0 0
5609 1 11.82970103580041 8.869993630167523 0.7884827652665739 0 0 1
751 1 10.514217755273414 8.661081227643217 0.8542369558077108 0 0 0
232 1 12.7309117290053 8.573200356387977 1.0059415770048785 0 0 0
188 1 13.056996154757435 7.841373586017023 0.12039915822621741 0 0 0
5073 1 13.762027180769472 8.023876016508941 1.066750407098545 0 0 1
5113 1 13.493384265376134 9.1530503396239 1.3867540715777016 0 0 1
271 1 14.635919006207226 8.258565282444726 1.6378323039379707 0 0 0
5568 1 14.651862002058415 8.85153221488491 0.7482170648231925 0 0 0
234 1 15.68321487068476 7.537169709796417 1.615070065033276 0 0 0
5579 1 15.101086576400137 7.925867644669407 0.5362501034866042 0 0 1
197 1 16.783586198891978 8.68660975900193 1.5121074346551506 0 0 0
5159 1 16.69501370636252 7.792545354361143 1.0420100602818851 0 0 1
1718 1 17.682567224886853 7.997963968628503 1.0614113855929272 0 0 0
164 1 1.5729042629385017 8.936459030971383 1.573151298153022 0 0 0
719 1 1.121882708889469 9.351571838715083 17.82036282585464 1 0 -1
5581 1 0.49268653659022343 10.194047174883137 1.4791523921614522 0 0 0
1275 1 17.85907093240376 9.008512236588581 1.0672014849057478 0 0 0
5092 1 0.994095015078074 10.465937862590337 0.490618417991217 0 0 1
246 1 1.8842045862670582 9.744794681104976 0.44220672193914495 0 0 0
733 1 2.922801483803925 9.76967757958339 0.6842162237102644 0 0 0
1289 1 2.3001433269570595 10.89052596940586 1.61826671798258 0 0 0
5591 1 4.167972692073849 9.878137686380214 0.7362450605903306 0 0 1
251 1 4.70111734811571 8.978106329422989 1.2541699064445861 0 0 0
821 1 5.815647538828611 10.498792242556048 0.020157247687997436 0 0 0
819 1 5.33175576587619 10.132434583293827 0.8149567964370027 0 0 0
5136 1 5.036936632644887 9.731245999014357 17.824337846159366 0 0 0
295 1 6.253405267027226 9.622861963119911 0.3530793605486198 0 0 0
328 1 6.829529172794711 10.312456576364653 17.629282246029778 0 0 0
741 1 6.8864195583624 10.484006557704102 0.8085688251215616 0 0 0
694 1 7.211152835067464 9.102477934475393 0.406884653089831 0 0 0
785 1 7.9237303952373 9.012478713503558 17.65795546685314 0 0 -1
5105 1 8.175305641270521 8.879642921142205 0.7104360006702246 0 0 1
1217 1 7.8427471767099615 9.96145237252209 0.6775204970816828 0 0 0
1223 1 9.009549809603742 9.812477468792327 0.7677531023519497 0 0 0
5068 1 10.266799034155486 10.486307611239653 1.4835732697331723 0 0 1
5600 1 10.856559572048699 10.412556175881695 0.5282798848907772 0 0 0
752 1 11.627327424997853 10.369988991473411 1.5504810402258695 0 0 0
219 1 10.236093156812608 11.324014473946557 2.9612217633183437 0 0 0
300 1 10.979709492113548 9.457394962675668 1.285069649915132 0 0 0
303 1 12.340709548359538 9.544414488789656 1.4286970122612117 0 0 0
5042 1 13.557908624581506 8.820454218428278 0.21462432730885692 0 0 1
4597 1 11.74800399809838 11.235427634575526 0.5585374212998038 0 0 1
5081 1 14.914121564617965 10.40164431102216 0.8344409953894544 0 0 1
272 1 15.552569499771511 9.495309911041202 0.8530289454391191 0 0 0
5614 1 16.424233431619292 9.636351145213242 1.376030300110529 0 0 1
758 1 15.641996197391231 11.09143237207883 0.8779264062911476 0 0 0
5618 1 16.39659895274339 9.551032365925606 17.614708610720616 0 0 0
5617 1 17.05905691981443 9.5833258681337 0.4658346779396142 0 0 1
310 1 0.09216312974127404 10.033659368207537 0.5691416729264286 1 0 0
1733 1 17.53422378411588 9.78927775893862 1.7147015795717895 -1 0 0
362 1 0.1510066543537759 10.917088041782993 0.18682420109111128 0 0 0
5547 1 1.0233469882243376 11.550499214933938 0.4878924518006533 0 0 1
810 1 2.8412815731396583 11.012997536289499 0.6018640431976581 0 0 0
1284 1 1.0069281993904462 9.495215046665193 0.9431554387408342 0 0 0
5632 1 2.366135896926658 11.82683938384433 0.6502899262363419 0 0 1
5631 1 2.9609211237744546 11.60086026692202 17.72843801588718 0 0 -1
1245 1 3.7564262443969336 10.797229214955891 0.8208687084335231 0 0 0
1250 1 3.900501801631083 11.508746164096161 17.958946403320265 0 0 -1
815 1 4.009235387267184 11.796296619573377 1.033720213885303 0 0 0
290 1 4.63868199402602 10.599446548640337 0.18734594872264934 0 0 0
740 1 5.613911949814504 11.106195318689656 0.8652348039201639 0 0 0
252 1 4.859977311163924 11.82634608778984 0.38779381743378993 0 0 0
4214 1 5.675978043479148 11.680800859380332 17.84546176160175 0 0 0
373 1 4.675856155047454 11.590447172014933 17.22521126010979 0 0 -1
377 1 6.586444458092004 11.210828298371021 0.1826405526121226 0 0 0
288 1 7.086317692025948 12.025393754824206 0.5011063419187463 0 0 0
1297 1 8.669303029042814 10.708429362199713 0.48519024283249734 0 0 0
1301 1 7.556699826870131 11.023331309120604 0.4170181264093393 0 0 0
1259 1 8.059129361670806 10.758703089342875 1.363965444625639 0 0 0
750 1 9.147154530183256 10.561828900707232 1.4655657109512414 0 0 0
1260 1 9.375524868583154 12.382771812553376 1.2751122298092696 0 0 0
787 1 9.821107203206136 11.33067205290908 1.0577228204600042 0 0 0
5595 1 9.719488681625547 10.47106797825339 0.52198567163012 0 0 0
829 1 10.839041488761703 11.373599218246655 1.6888699944243624 0 0 0
292 1 10.800727853488524 11.538810974945262 0.6290199471822469 0 0 0
343 1 11.768801461734286 11.39877277211244 1.5694498046401975 0 0 0
756 1 12.441692328122386 11.745332928759275 0.12671159176924743 0 0 0
791 1 12.483549687466684 10.617726933509033 1.052385124007442 0 0 0
5689 1 13.3556595798372 10.255344494273531 1.3910823062911273 0 0 1
270 1 12.744678526612711 11.63278910465878 1.1449048116475238 0 0 0
789 1 14.359658855767904 10.711960413746196 1.7019373656962495 0 0 0
5651 1 13.641666691221381 11.253043561347223 0.8551286721802539 0 0 0
347 1 14.676838961283437 11.45905440354655 0.9228747587031274 0 0 0
353 1 14.169367574945904 10.654464805703311 0.12193710114583567 0 0 0
228 1 15.239395093129406 11.195165138784185 1.8761444768137743 0 0 0
5619 1 16.231800369278023 10.259516644935625 0.6131878422010562 0 0 1
5697 1 15.38316232118479 11.99032053362083 0.42098465451395484 0 0 0
363 1 17.264220308430183 10.487446058041263 0.957743288672101 -1 0 0
350 1 16.665323900838512 11.272412923637967 0.5108203834280618 0 0 0
5202 1 16.99165833604001 10.425592704120573 17.84772135612247 0 0 0
5665 1 0.4565192231018912 12.7000114320887 0.5192966151517947 0 0 1
5635 1 0.6410275584033454 13.070890412491842 1.44486310257316 0 0 1
5627 1 1.5091851532379874 12.4192635520758 0.6386322339824981 0 0 1
327 1 3.14062283781367 11.674204133960371 1.342181829113495 0 0 0
359 1 2.1717988045920293 13.724996437343329 1.185553640206619 1 0 0
5664 1 2.532047221575981 12.65602050820247 1.1843579241573952 0 0 1
369 1 2.324976620544993 13.649330709032302 17.656756985491604 0 0 0
5636 1 3.329031793418908 12.34486838280468 0.5843590211954444 0 0 1
329 1 4.312309826726742 12.905762970278616 0.8887654387641682 0 0 0
414 1 3.471613460895341 13.205785788813975 17.41421600272936 0 0 -1
245 1 5.79338329449744 12.04644400799317 0.8654739331571306 0 0 0
332 1 5.196565682466217 12.734125417979097 0.32695982338880475 0 0 0
5604 1 6.2194220507625015 12.846776717557502 0.4030156720865459 0 0 1
1371 1 4.57559188745356 12.50039563620688 1.764256799905052 0 0 0
380 1 7.424884431325855 11.647950691966813 17.601867848943797 0 0 -1
859 1 7.678646756703734 12.71351178469501 1.241006706346801 0 0 0
5638 1 7.0915942735098785 13.569550709640678 0.10070507719835815 0 0 1
330 1 6.602491019682951 12.687770668870822 1.4252184686739502 0 0 1
338 1 8.272752428870762 11.747446611005476 0.7892835340432356 0 0 0
296 1 8.612322913055836 13.145256521698569 1.0441562741382513 0 0 0
863 1 7.699083482094383 12.694370354337133 0.16859992397300316 0 0 0
344 1 9.436656513632446 13.351600472577342 0.43952362962849584 0 0 0
299 1 10.093806956203897 12.240957570022807 0.3599367810859207 0 0 0
1303 1 10.50881510100453 13.374435227372672 0.5841510494951985 0 0 0
340 1 10.53982131535698 12.353131585955769 1.3854576827135572 0 0 0
309 1 12.149418561729137 12.353906762054136 1.154903957768488 0 0 0
754 1 10.840362478473681 13.296477073530106 2.1068451206458625 0 0 0
1750 1 11.355932809634957 12.340396342380078 1.9287553940986888 0 0 0
709 1 12.976263742582027 12.487119296983725 0.6192820125969138 0 0 0
346 1 12.359320162869707 13.237519722115367 1.3104806558026543 0 0 0
1298 1 12.523657371332522 13.680834360676036 0.3632923363826497 0 0 0
390 1 12.146258112157591 12.723729357370933 0.035993580360101626 0 0 0
835 1 13.493584341179911 11.44940442249767 17.819946492190244 0 0 -1
1833 1 13.667413591805133 13.26548300953114 0.31017054067716865 0 0 0
388 1 14.889618764680481 12.520644860540543 1.2922843147338836 0 0 0
5657 1 14.554377196704879 11.837062874540075 17.96440120232978 0 0 0
276 1 15.644979934763397 12.665341161381619 17.7848714936282 0 0 -1
5170 1 16.006667916174123 11.946723413781417 1.279983579219539 0 0 1
5648 1 15.810440416996697 12.902427085953502 0.7728536603746571 0 0 1
274 1 17.795488989264292 12.001876902035697 0.7105985218714462 0 0 0
314 1 17.523768748552108 12.623309792269275 17.816155947314062 0 0 -1
796 1 16.891624907337576 12.504101261665909 1.06997066306779 0 0 0
399 1 16.59626417487361 12.314483131316733 0.13110295348769926 -1 0 0
888 1 1.2317043019636782 14.374655744479696 0.48408600149961967 0 0 0
808 1 0.2906423948616291 13.945817253334706 0.6397979501610911 0 0 0
326 1 1.2019774645032608 13.874350021923542 1.4056402481995778 0 0 0
967 1 2.2806801855862315 14.530732589501257 0.25857546696955286 0 -1 0
846 1 1.862377842732582 14.722653860730155 1.2403333305186721 0 0 0
441 1 4.277964466734158 15.207927928544757 0.384764181552637 0 0 1
5673 1 3.8201620877230913 14.285251048081701 0.6964792208104175 0 0 1
778 1 3.1747155325154757 14.202331093460684 17.640728004880984 0 0 -1
1411 1 2.976463378954639 14.381652408653519 1.556905818052629 0 0 0
5224 1 4.31531412238236 13.600087059146924 0.023391635366584063 0 0 1
5672 1 4.898981888393954 13.669988395254181 0.8203069195113586 0 0 1
896 1 4.609067254440269 14.390399514870037 1.4369385427452195 0 0 0
5678 1 5.176230282032728 14.491763998945588 17.980690120069415 0 0 0
5181 1 6.4916749421555355 13.768752443245775 0.8925474470970983 0 0 1
940 1 7.14660522040584 14.619287891049757 0.6109779463615066 0 0 0
371 1 5.560150563015473 12.985649478858438 1.2175694683269873 0 0 0
410 1 5.709195834359896 13.997481245605421 1.4615294637455811 0 0 0
1378 1 8.093155409715905 15.007475283980519 0.8928429664631506 0 0 0
459 1 8.817676261172673 14.266957422511085 0.4103603356457496 0 0 0
421 1 8.512921027019022 15.184920883591502 17.962004378869707 0 0 -1
866 1 7.785603562955302 13.893487173921088 0.7571795198148668 0 0 0
909 1 7.9060682687725645 14.400335365968713 17.90262852428372 0 0 -1
2236 1 9.846479837810804 13.265826670787167 1.3873276759955147 0 0 0
911 1 9.646371653340559 14.250979323638482 17.76253731401209 0 0 -1
386 1 10.3983785626855 15.331816386610067 0.9854025103662856 0 0 0
384 1 10.954394395105101 14.397092332072848 0.6334558277791308 0 0 0
872 1 11.543351409702248 13.654782307818277 0.33698395088158356 0 0 0
5692 1 11.877938888960129 15.12091666155907 0.8799000793135291 0 0 1
1351 1 10.750203135712008 14.195087809168633 1.679047293723969 0 0 0
5194 1 11.823604712104125 14.182055325307836 1.417089043612113 0 0 1
349 1 12.794417926162165 14.444611516541816 1.011112869233037 0 0 0
5727 1 12.881544113770849 14.307438876831194 17.124413823998022 0 0 0
306 1 13.896712934640552 14.384616152556443 1.0697956166570932 0 0 0
348 1 14.487204361762437 13.365495450397194 1.004833605947421 0 0 0
873 1 14.089326662030464 15.3561941079597 0.01509651861586165 0 0 0
1305 1 13.335351073309761 14.316899438678035 0.11131744433792021 0 0 0
356 1 14.911994430562046 14.366265872686112 0.9079712126197469 0 0 0
924 1 16.594748284654973 13.425847478172503 0.48979798205717817 -1 -1 0
364 1 16.065455519470568 14.241139796901601 0.973837476447148 0 0 0
5658 1 17.63222861975595 13.162343137582189 0.6194909082555435 0 0 0
851 1 17.23321481957771 13.591255969538826 1.6657656211391503 -1 0 0
960 1 17.72034742035949 14.886791051191615 1.5545226888916723 0 0 0
317 1 17.228637687526223 14.296516738483145 0.926530117854816 0 0 0
926 1 0.692055239733325 14.816983074625908 1.1953364099785133 0 0 0
5829 1 1.6112206209879085 15.679563160370183 1.149252984770052 0 -1 0
1037 1 0.4311346861133121 15.826428934715063 1.38302442306182 1 -1 0
847 1 1.293912789847887 15.428515254515634 2.065484654859048 0 0 0
5226 1 2.8527033225376526 16.118138712955865 0.6271073330504927 0 0 1
5755 1 2.563240225430856 15.399542618775945 1.385148369091717 0 0 0
406 1 3.1514686169326227 15.085639853548088 0.647487335735006 0 0 0
895 1 3.7800042592718546 15.095873738875593 1.39397336002361 0 0 0
5297 1 4.120755534477156 15.97906210075521 0.8622462140908064 0 -1 1
890 1 3.3994374253823505 15.981425715706836 1.6042667769328127 0 0 0
5265 1 5.116313154317625 15.793374795514474 0.6746603386139516 0 0 1
5715 1 5.821240451866853 15.770476736682225 1.4504577758608175 0 0 1
4878 1 6.214386173483537 16.730041701591187 0.7988300481284328 0 -1 1
378 1 6.569304619683175 16.22400051452235 1.8148045801231119 0 0 0
900 1 6.154430136213349 15.703767499580584 0.4920334962268689 0 0 0
927 1 8.43306842582671 16.53561361722975 0.21513537557142426 0 -1 0
893 1 5.451574026343492 14.821660643335226 0.9487967485419653 0 0 0
898 1 8.846496982491729 15.773955764979414 0.7081690946821836 0 0 0
345 1 10.462129131463756 14.863748957900043 17.936268621600995 0 0 -1
381 1 9.632126228323957 15.02939180470464 0.41101000585050673 0 0 0
1390 1 10.478182837578185 16.363439632722546 0.8854148226160385 0 0 0
1304 1 12.408797295989645 15.615361166067041 0.23212391271976562 0 0 0
870 1 11.06152391056017 15.705316399804808 0.11001187431051472 0 0 0
868 1 11.294110287023738 15.084132927247913 1.769567619530336 0 0 0