LAMMPS data file via write_data, version 7 Feb 2024, timestep = 25000, units = lj

4095 atoms
1 atom types

0 16 xlo xhi
0 16 ylo yhi
0 16 zlo zhi

Masses

1 1

Pair Coeffs # lj/cut

1 1 1

Atoms # atomic

387 1 0.8072751754942596 0.3328634731500152 1.0090630649865688 0 0 0
1167 1 1.2416435007416273 1.4023048836594731 0.5870822610360956 0 0 0
3796 1 0.09725951408423154 1.0876439026621376 0.840597904453624 1 0 1
751 1 2.419904247503341 0.14538939075068805 0.7009981181610698 1 0 0
42 1 1.6926216918893233 0.5189235905092402 0.09099734104857247 0 0 0
7 1 2.1689544134705696 1.077691381358487 0.8252506025037913 0 0 0
385 1 4.242883472062315 0.5070078144362042 0.6417827618430734 0 0 0
427 1 3.2538302600907634 0.6687062807551561 0.8706443763010989 0 0 0
9 1 5.006229380397389 0.9968864815258651 0.10370535457408288 0 0 0
1142 1 5.056547230253209 0.38010329788667013 1.1370291526844327 0 0 0
792 1 5.785737322219729 1.360364811517142 1.2578754012689692 0 0 0
432 1 4.737496398644404 1.2679837715350708 1.338501362720164 0 0 0
4066 1 5.914025183614328 0.7360667061655695 0.530851168080484 0 0 0
49 1 6.804163961613903 0.40268215253969314 0.44318835145476637 0 0 0
51 1 7.080518188043156 0.9986568985786365 1.2178947431087512 0 0 0
3784 1 8.108417550350435 1.2072943173177568 1.0801540609273095 0 0 0
4045 1 7.6672475748240565 0.32453949005504473 0.8263146970524445 0 1 0
3751 1 9.41250880219816 0.8476216877175038 0.01924354855959635 0 0 0
3415 1 8.76726163180067 0.4831122978750839 0.8019884898947518 0 0 1
370 1 9.812453456012909 0.48649300254206584 1.1839673586642792 0 0 0
4024 1 11.209362454659601 1.3095728182079827 1.2162663597750998 0 1 1
506 1 10.25415209459299 1.3455153166374836 0.7949551737419258 0 0 0
4083 1 10.713041867008785 0.427015593316057 0.6536588814448622 0 0 0
3419 1 11.486566396719029 1.012119736551213 0.15422147729963712 0 0 0
807 1 12.188749887546381 0.9264561027968958 0.9276782227578281 0 0 0
340 1 12.75908043229984 0.06390607728636512 0.7428915377281224 0 1 0
3786 1 13.152272168292079 1.0365211795820821 0.6368575200979296 0 0 0
716 1 13.694101429551388 0.30657418752341303 0.22686087170437105 0 1 0
441 1 14.191528449333518 1.2047083204155127 1.18457093094795 0 0 0
380 1 13.365181921850306 0.48436950375686244 1.4302139331549328 0 1 0
4 1 15.729404410717882 0.12310881274489446 0.6825136489152973 -1 0 0
28 1 14.776149783528997 0.6923649348406453 0.49626571120722973 0 0 0
66 1 0.6989378427594816 2.1497277371794996 0.8318785181816369 0 0 0
72 1 1.6149096840009953 2.6043770016540972 0.18133711999258767 0 0 0
39 1 2.096937232949233 2.1521528494499527 0.9516837049072433 0 0 0
3861 1 2.824368801689035 2.7339672972002314 0.19195052628961093 0 0 1
8 1 3.150113720728764 1.8344530374417016 0.5492664447857476 0 0 0
77 1 4.066339363414294 2.0452040000097504 1.368116120961981 0 0 0
46 1 3.9328513280182986 2.4877255130300995 0.46163122938402035 0 0 0
788 1 3.1302898508779546 2.5469659456939624 1.3017141844578348 0 0 0
1108 1 4.127569782669804 1.4831252442997378 0.511256266780849 0 1 0
16 1 5.086660255321878 2.07503970907954 0.7326835172113633 0 0 0
93 1 7.109632126660196 1.594140461999623 0.31031905869042004 0 0 0
4041 1 6.066071195390415 1.7876568067249834 0.38373837952841844 0 0 1
3747 1 5.913538754050958 2.724526583142517 1.3254994893201242 0 0 1
3781 1 6.625436883138422 1.9396148194020868 1.4421861905554456 0 0 1
437 1 6.5678589127733655 2.6584903208468718 0.5942881963813338 0 0 0
798 1 7.541799199966577 2.22784935305439 1.06753971299262 0 0 0
22 1 8.420272447515917 2.16886076053094 0.4844624150925751 0 0 0
3411 1 7.399098153850381 2.884841624728824 0.08882324980442373 0 0 1
3787 1 9.312333621058988 2.030454971862712 0.04348588007076846 0 0 0
403 1 10.138449018011352 2.319633668869141 0.8022373209263134 0 0 0
3816 1 9.286410335474093 1.5607323388991365 0.897530341037746 0 0 0
3485 1 11.071390105232492 2.0831972921530384 0.45632978170705324 0 0 1
3825 1 12.16405113214182 1.8834464801316522 0.6813701907031898 0 0 1
3788 1 12.854480164774081 2.6852147911564876 1.263666352563861 0 0 0
126 1 11.83782778526516 2.7471712854220014 1.1634807762761294 0 0 0
4089 1 12.965107107709846 1.7266529359842848 1.370427458565481 0 0 0
411 1 13.101118235075894 1.9897784418837665 0.15525942103021095 0 0 0
34 1 13.99629821476053 2.0983936991018726 0.7590456318761913 0 0 0
64 1 15.160402616605879 2.593979525559865 1.0761410936766738 0 0 0
3790 1 14.622454867333913 2.639431189642488 0.14155024096043062 0 0 0
3763 1 15.670104089500043 2.1232653330470197 0.16038250724673503 0 0 0
27 1 15.197468559579816 1.5891880026192124 0.8159632607635494 0 0 0
416 1 0.047011426454395155 3.0280098453009168 0.8661901032538178 0 0 0
849 1 1.1419555694566814 3.444460017944329 0.07679973893539904 1 0 0
3802 1 1.2411229280950629 4.18008816980784 1.2718508124348944 0 0 1
38 1 0.3484334723841319 3.8782919022301683 0.48384741239095536 0 0 0
75 1 1.1604763122806416 3.2242163085296878 1.155252355364574 0 0 0
3774 1 2.8919753839808915 4.3179104124456416 0.6626550501617687 0 0 0
3770 1 2.126768327227583 3.625654830163903 0.5010440484214178 0 0 1
390 1 3.5081861007456685 3.3848877091730523 0.7746896396664089 0 0 0
3434 1 4.272621445442535 3.970020846174516 1.4307267457281347 0 0 1
465 1 4.470581888877522 3.439780532526803 0.08426446728681354 0 0 0
120 1 5.301115229606775 3.847835570351179 1.0277678469944693 0 0 0
789 1 4.65572434360349 2.92645257821683 1.032483161409443 0 0 0
80 1 5.582873629799712 3.0695675423450695 0.39386976502566556 0 0 0
3401 1 6.3896503789681836 3.6816464131359132 0.6253335991299123 0 0 1
12 1 8.315158009789712 3.1486769196764675 1.3081349642938618 0 0 0
3839 1 7.4505773351904026 3.4654052624033174 0.9704095740201653 0 0 1
862 1 8.468865305280962 3.7461544384545107 0.5238011778826618 0 0 0
112 1 7.407168114078577 4.140617084590845 0.14871082543267847 0 0 0
53 1 9.68193518787585 3.078169845460153 0.24627415388155965 0 0 0
466 1 10.027833055206179 3.224029398679772 1.2101719345229036 0 0 0
122 1 9.411935571217215 3.9593387734128775 0.7624247786319944 0 0 0
3885 1 10.865906909552828 3.2097509985549606 0.6125613877286809 0 0 0
469 1 10.358585395568998 4.288843245341615 1.0704325091974851 0 0 0
96 1 12.469031667362714 2.9252747284831013 0.3861640647563279 0 0 0
89 1 11.762923273862743 3.639567340133941 0.6426420420262792 0 0 0
3821 1 12.739552657095201 3.8885057351143657 0.7936912943499239 0 0 0
3377 1 13.469572938318302 3.0558774198452463 0.501321282793565 0 0 1
132 1 13.500576514064404 3.7030070000914543 1.4022263274466347 0 0 0
513 1 14.494424969423894 3.5070883474571404 0.6027823096179815 0 0 0
3737 1 15.30981552757924 3.7320416602121544 1.1547791830365188 -1 0 0
878 1 15.510791416823503 4.27120421497757 0.08810721901686874 0 0 0
520 1 1.0847918731300854 5.5036887954459415 0.6078648964166613 0 0 0
482 1 0.25381812807048415 4.800088458592267 0.5483792954293997 0 0 0
3429 1 1.2311692994474304 4.480093263721134 0.29530290261709685 0 0 1
458 1 2.0364927808052964 4.865018851735945 0.5974278556080402 0 0 0
145 1 2.8249250722525234 5.297486990638261 1.2244168838494864 0 0 0
3462 1 2.0024900473620435 5.809997756785907 0.1423874105356401 0 0 1
141 1 4.080122077876596 5.481519703113335 0.0853662578763575 0 0 0
3806 1 3.8910000561170146 4.677339862246416 0.7016839885603157 0 0 0
3538 1 3.0893781202181225 5.181931462197295 0.18171981203423188 0 0 1
41 1 4.716342889301443 4.408624728339997 0.05539031161316141 0 0 0
532 1 5.140952682061489 4.82929459403751 0.9857261141593655 0 0 0
3432 1 4.863514557313963 5.74721249536253 0.7139388144832011 0 0 1
54 1 7.090338321479696 4.381099520301123 1.0722965370264665 0 0 0
147 1 5.8603023255928095 5.552519526508512 0.5644246168905588 0 0 0
799 1 7.1992171401471605 5.3970183787250825 0.9514959612977926 0 0 0
530 1 6.726020195249523 5.0369925509919184 0.19294604122825132 0 0 0
903 1 6.1305953932988375 4.700170430592736 1.314183000267762 0 0 0
3846 1 5.828641706177917 4.598241934526108 0.2279135186647026 0 0 1
83 1 8.236694396750732 4.725807234250412 0.8226898812177421 0 0 0
194 1 8.23532138890265 5.772267021047503 1.0578105449240849 0 0 0
82 1 8.685489449439068 5.631188300422658 0.09274330677440537 0 0 0
123 1 9.13913999029454 5.229903242373055 0.9463373272099975 0 0 0
3881 1 10.043905415045437 5.227497544401139 0.620346272648505 0 0 0
3849 1 10.943469240029804 4.66404749619774 0.31720031543885696 0 0 1
3520 1 11.428852303883419 5.4152024851584954 0.7617666695134471 0 0 1
3815 1 11.442971588627186 4.434538291689512 1.2019205086734615 0 0 1
906 1 12.060974810341444 4.646880481581153 0.37201802813692464 0 0 0
3890 1 12.430329187068073 5.785857868899319 0.7583748803068167 0 0 0
950 1 12.240248041019308 4.973820452248646 1.3800221184898651 0 0 0
840 1 14.345816546826835 4.537675726624821 1.0953724689595012 0 0 0
3886 1 13.440960311023593 5.579493368868049 0.2980203136573981 0 0 1
474 1 13.389272029640336 4.559475946819485 0.602871067522855 0 0 0
3895 1 14.414405245327472 4.486875011564423 0.02368266492228247 0 0 0
525 1 14.233990624741322 5.518738376267029 1.0646936734952992 -1 0 0
3830 1 15.219708416881547 4.97942603787843 0.8680663486017762 0 0 1
3868 1 0.23969883525078325 6.126495928713033 0.5482261316877132 0 0 1
171 1 0.7379595236002646 7.1569006588738135 0.16854150099291731 1 0 0
106 1 0.7813172461917708 7.168977207389362 1.2508808228335293 1 0 0
3838 1 1.9753324298303843 6.032403774353096 1.2156660556708248 0 0 0
3836 1 2.8349820569978514 6.327268014670184 0.5795994210777268 0 0 0
3149 1 1.5203111567830843 6.613410781335554 0.5146013019432717 1 0 1
3869 1 2.015165606331824 7.172975148660338 1.3618587375142899 0 0 1
3400 1 3.616436099085818 5.884217908928102 0.9039079975073486 0 0 1
3865 1 4.20636779553808 6.433182534187302 0.34680732325187225 0 0 0
499 1 3.0968563163099887 7.233571147947916 0.9192076400087331 0 0 0
1347 1 5.466595017327148 6.466048325797123 1.3409231325756867 0 0 0
189 1 5.052331217503661 7.0872971970357055 0.6923783083398789 0 0 0
3981 1 6.082922881663619 6.886720327919167 0.5608326713092628 0 0 1
148 1 6.944046415326943 6.021788339251733 0.2885272787124727 0 0 0
3940 1 7.1614539353681215 7.088292514854488 0.4666585863815502 0 0 1
496 1 6.388162232420945 5.889672358443967 1.4286879023334944 0 0 0
222 1 8.12247680139671 6.8156772867646644 0.5894245629622554 0 0 1
1327 1 7.365503438882534 6.4369100717873 1.36449895534452 0 0 0
129 1 10.036852240707882 6.004626697840578 1.247380149322271 0 0 0
3878 1 9.04342757444965 6.307113872655581 0.8118931028454119 0 0 0
193 1 9.709613577793501 7.033720107820608 0.3342649209740711 0 0 0
158 1 9.485636909956607 7.0935832541424135 1.3105203874042644 0 0 0
974 1 11.453012198725347 6.25820773884045 1.3911900917015747 0 0 0
125 1 10.417484679430224 7.053232055562482 1.2336069804405745 0 0 0
3954 1 10.716050498276136 6.353928492601754 0.5927115955042357 0 0 1
99 1 11.659858753455044 7.241471640351991 0.7996637359840879 0 0 0
572 1 12.6539951963871 6.799125101337605 0.5188876838989542 0 0 0
3893 1 11.80230743746391 6.420554258804111 0.2378507098028441 0 0 0
3899 1 13.210896766438804 6.259082282205397 1.2020704201052514 0 0 0
3858 1 13.821996487723283 6.477573447623641 0.236143619509607 0 0 0
3930 1 14.25939440149343 6.662789174557969 1.260367206189092 -1 0 1
488 1 15.737011324973315 6.921293412824827 1.168989342586263 -1 0 0
3901 1 14.836292502947728 6.265578497514293 0.5067311875738937 0 0 0
841 1 15.281041203240674 5.847985052995706 1.4456510133015716 0 0 0
587 1 0.8375133102100283 8.03731996672126 0.8979535931136851 0 0 0
3150 1 0.2795182546195271 8.711168242190787 0.26235648528197486 0 0 1
589 1 0.030047570048096654 8.675821715242968 1.308716301535665 0 0 0
579 1 1.781669512752023 7.70951881881935 0.535662521817902 1 0 0
495 1 2.52150015753776 8.239861270735313 1.1366246305729362 0 0 0
3805 1 2.6589228147568225 7.552742544003558 0.019368432936964126 0 0 0
3503 1 3.5540932092469855 8.390615519520026 1.1919749462718665 0 0 1
78 1 3.402952764834508 8.198467381329316 0.24976048227865272 0 0 0
143 1 4.1198747175085115 7.586537389636567 0.800266125548064 0 0 0
251 1 4.5670385850318755 8.566811906875534 1.0645214920102655 0 0 0
3476 1 5.46347297893112 8.057399777569987 0.9831689018203827 0 0 1
110 1 4.845788897854752 7.969369323855682 0.17307989870269744 0 0 0
3165 1 6.602187878005057 7.723430503556068 0.9241168383069478 0 0 1
296 1 6.362471450908529 8.717113675652923 1.262545275018062 0 0 0
938 1 7.055817340863466 8.630715042014291 0.5050762061560752 0 0 0
3469 1 6.081775498758755 8.480680988238571 0.30225498094215997 0 0 1
603 1 7.584850700926713 7.626991617827498 1.2453887854845769 0 0 0
3840 1 8.624642767527366 7.919913568277688 1.1763117041060407 0 0 0
3915 1 7.771940015137454 7.896118133288119 0.1669815543429025 0 0 1
185 1 8.731367608460664 7.651678790559696 0.19469763661262174 0 0 0
3132 1 9.567559573328817 8.005047170645712 0.728917336268585 0 0 1
233 1 10.521948035013953 7.674245821756449 0.5100421575557627 0 0 0
637 1 10.73933255446649 8.593881546960018 0.01140441893545755 0 0 0
229 1 10.368400270609136 8.606238490399365 1.0368051219238483 0 0 0
1009 1 11.082271131685978 8.000689339278155 1.424953238022477 0 0 0
231 1 11.778992092858287 8.102899847552095 0.19121428767935134 0 0 0
543 1 12.885023556998892 8.03121276987405 0.16418863575882342 0 0 0
1010 1 12.125716269517685 8.129092534455458 1.212311784425486 0 0 0
239 1 13.103917887376067 8.463723837403423 0.9951348153945592 -1 0 0
3892 1 14.074651433720948 8.164807434964676 0.2573333085845041 0 0 1
540 1 13.669148753395191 7.402263411113958 0.9065731024560751 0 0 0
953 1 14.90711051350814 7.331227291341842 0.771512358195238 0 0 0
3903 1 15.896318878650048 7.73995252703672 0.5244316210004367 -1 0 0
241 1 15.200373360448898 8.398136708909078 0.3949330549687074 0 0 1
3905 1 1.1482166603056276 9.47987384439282 0.36384192153062245 0 0 1
3975 1 0.04996331037194717 9.839483334847365 0.677308575808421 0 0 1
620 1 1.0463968615375792 9.040574304987414 1.3342552334408195 0 0 0
242 1 0.976337736796048 10.023314248767083 1.4392119991974985 0 0 0
236 1 1.7991854082835699 8.759003457527966 0.715881431015174 0 0 0
1341 1 2.0927270988238114 9.840866238966058 0.9188483151906831 0 0 0
246 1 2.8012247367521548 9.062054219954051 0.5917200018556062 0 0 0
136 1 3.8794176866236447 9.068792458659518 0.5544281060340308 0 0 0
3537 1 3.357925016481306 9.90175160367102 0.29969827695215445 0 0 1
596 1 4.53074639040317 9.83512151811821 0.4360462206618701 0 0 0
253 1 5.420462864334912 9.213862651461856 0.936688443791624 0 0 0
3980 1 6.5227413596061075 9.65178324047224 0.710988741058535 0 0 0
262 1 7.809956504917351 10.159559904656861 1.1270237192206831 0 0 1
3945 1 7.526565647198928 9.576131880355808 0.2015073585670065 0 0 1
1426 1 8.186115363083585 8.904156706157728 0.8564480360247757 0 0 0
1002 1 8.551212586389205 9.71608461337733 0.1998651343881818 0 0 0
1007 1 8.695332513112625 9.731063107186868 1.252070602828091 0 0 0
979 1 9.258791076333933 8.951305840174323 0.4678047992452849 0 0 0
675 1 9.480785867868496 9.973028052163524 0.5466274075227129 0 0 0
607 1 11.372660276538763 8.895346659130617 0.7401788606393248 0 0 0
3658 1 10.332453803248981 9.51819771914689 0.4049521249871502 0 0 1
676 1 10.92041905402462 9.593554668614107 1.4231454137171364 0 0 0
274 1 12.558097859077025 9.014521049987513 0.21282955276288765 0 0 0
544 1 12.284070690816971 9.205733160699321 1.1737471612172168 0 0 0
303 1 11.691581948890006 9.956884720037287 0.8051578322653047 0 0 0
609 1 12.713875574933077 10.080364284603096 0.8143804090002172 0 0 0
3925 1 13.52199855565251 9.18773653016545 0.3365933530826995 0 0 1
578 1 14.478800796064318 8.928334150743177 0.7941437765974662 0 0 0
3559 1 13.227567026527366 9.40099608823135 1.453078098946277 0 0 1
3994 1 14.028787834329812 9.87544911654875 1.0430505021224372 0 0 1
3904 1 15.255528333115562 9.325624477146995 0.22637928245209651 -1 0 1
951 1 15.2358535546111 9.439447311158801 1.2601884769881897 0 0 0
310 1 0.3983455618188629 10.956191661453946 1.0784003858625406 0 0 0
654 1 1.3117298169168703 11.403975795861692 0.8563835830787054 0 0 0
213 1 0.6169167472719572 11.618842435116672 0.11260738971972836 0 0 0
4060 1 1.5000696103620927 10.42730436585451 0.3843814851870549 1 0 1
3639 1 2.5163368553051355 10.557985210106159 0.026307504067486467 0 0 1
921 1 2.4468174316989892 11.310512219110208 0.9408959628322783 0 0 0
3999 1 1.758093114260123 11.431155666305237 0.00046590487476610987 0 0 1
623 1 3.0032275967808015 10.256318758650007 1.1244385767084826 0 0 0
3911 1 3.397893275057413 11.211773693197511 1.3116088863546023 0 0 1
286 1 3.9697009260832554 10.662729270263302 0.5456280295092891 0 0 0
631 1 3.177815602731183 11.285018213891725 0.24114471212618352 0 0 0
4013 1 5.359536823587512 10.297390592644183 0.8764560423159471 0 0 1
225 1 5.7255184703193915 11.295181714295374 1.3872543429716182 0 0 0
3640 1 4.974119160813 11.093345875110016 0.5515215060092807 0 0 1
266 1 6.777891818995238 10.43216894444263 1.223022829259836 0 0 0
663 1 6.690864314959754 11.540434390862822 1.139149652294597 0 0 0
3579 1 6.263144005879902 10.98264402966281 0.36930909290933256 0 0 1
665 1 7.268109984497656 10.522529245843605 0.27358471173828 0 0 0
188 1 7.698161951545427 11.23100733839149 0.893619721835968 0 0 1
640 1 8.378974543364002 10.722681694427646 0.2885358387197722 0 0 0
669 1 8.568235588800652 10.782967198711901 1.3946565021283879 0 0 0
642 1 10.053364247983104 10.578187622559254 1.267342044684495 0 0 0
673 1 9.679373387574863 10.931935565157012 0.3933492882055904 0 0 0
1075 1 9.378220843289323 11.604513695499923 1.4216355516356782 0 0 0
263 1 10.481444822934233 11.488471880527403 1.2129807484462738 0 0 0
3621 1 10.968812674849357 10.756733100134593 0.685311265288301 0 0 1
301 1 11.483075860469082 11.518149498209157 1.3606687194813716 0 0 0
3953 1 10.502605163694565 11.416538672083098 0.08528870021032117 0 0 1
3965 1 12.611691142884565 11.00558214540652 0.3015008992353724 -1 0 1
311 1 12.175279762375094 10.787057750114105 1.417896304954759 0 0 0
3961 1 13.508629352190926 10.330104848387254 0.3444014770041519 0 0 0
3996 1 13.424438829394381 11.064191899866255 1.0660989588830292 0 0 1
240 1 14.293393392573941 10.87990417670384 0.27069851386108995 -1 0 0
344 1 14.674855979904569 11.280321747030749 1.4274138444993334 0 0 0
987 1 14.915434563367533 10.28095185322504 0.8017634929941969 0 0 0
3634 1 15.428767767295946 11.094580841564035 0.6575015436047812 -1 0 1
313 1 0.812128982701304 12.352324551683292 0.805757111087309 0 0 0
656 1 1.882136429236164 12.218237528929834 0.6517780685593921 0 0 0
343 1 3.093708408459101 12.149030828695865 0.8055090146870506 1 0 0
3971 1 4.1569904837975855 11.661042385888699 0.7425258916862189 0 0 0
287 1 4.067319871143641 12.6615767456355 0.9233729018120669 0 0 0
3873 1 4.999156715150765 12.06183233136532 1.3039872695433232 0 0 1
3907 1 5.779578923219799 12.085216047314917 0.6731969611565979 0 0 1
697 1 4.853960205239367 12.40850342885568 0.3303896591898404 0 0 0
634 1 6.811704021711601 12.500577863338059 0.6939589472462964 0 0 0
3614 1 6.876191835682126 11.756061676575959 0.10307999366554171 0 0 1
695 1 7.81109370653358 12.439934508436332 0.8421338183153213 0 0 0
364 1 8.67544279156828 11.65545738384613 0.7154225554924021 0 0 0
702 1 8.917141197505927 12.536711039655078 1.016869681440614 0 -1 0
3659 1 9.717902382848811 12.073473978746541 0.21107551824330462 0 0 1
671 1 9.92244852502813 12.72430242211364 0.9626825923062149 0 0 0
295 1 9.820765390392573 13.08662528202362 0.0004483340336882691 0 0 0
404 1 10.777113609726259 12.37664789112548 0.5537937193406488 0 -1 0
3663 1 13.015139154084098 12.807865330096211 0.8532806614939161 0 0 1
276 1 12.549595079541104 12.274931881365227 0.04247963052352842 0 0 0
4033 1 12.743535001927217 11.721324299578194 1.0111961386482617 0 0 1
298 1 11.681823370235398 12.663483580272022 1.081294545728867 0 0 0
300 1 11.807762352265113 11.761792439220097 0.4931188357677197 0 0 0
341 1 14.142069186985653 12.889830345166214 0.5919257012063993 0 0 1
717 1 14.533205922346797 11.921992673645795 0.5629674564838653 0 0 0
3667 1 13.502523699377765 11.736841259667457 0.25974088092312175 -1 0 1
3998 1 15.859321173631626 12.028157681829203 0.8047557045533326 -1 0 1
4034 1 15.192017164249783 12.8215130018969 1.0015697966008286 -1 0 1
316 1 1.2890531710079705 13.229352376405194 0.803117408320552 0 0 0
3350 1 0.3159258632276727 14.424635928372977 0.9348286243502218 0 0 1
349 1 0.08592115220357854 13.281945064156563 0.7535161594539495 0 0 0
3967 1 2.273726714348474 13.215747679628409 0.3513391095702817 0 0 0
4038 1 2.0624478571493445 13.857997752323584 1.3051059919758683 0 0 0
314 1 1.6249464869693855 14.36606732565514 0.44507356846051327 0 0 0
3673 1 3.337703542913456 13.139584770075764 0.4102107224657544 0 0 1
4078 1 3.0273602116620615 14.041305153145403 0.5271938408154337 0 0 1
658 1 3.9287506160387973 13.710173351421918 0.9144221091137643 0 0 0
288 1 3.079108593895764 13.27121695020505 1.3649156726293499 0 0 0
291 1 4.240841575664657 13.24980683357256 0.0664796530841909 0 0 0
4036 1 4.091682527227717 14.39798773261901 0.08225132785564741 0 0 0
4072 1 4.705631751968087 14.408315353194965 0.9316924991322724 0 0 1
4011 1 5.202141302738621 13.726570895304192 0.278060676176119 0 0 0
1484 1 4.9862225508836895 13.181344304531414 1.205539653348621 0 0 0
292 1 6.702489431980099 13.813816245423652 0.4309308334743271 0 0 0
326 1 6.679923517244322 14.306034555637188 1.3576367107849066 0 0 0
327 1 6.013688637576397 13.125340191630094 0.5443459236113506 0 0 1
333 1 7.753553031858134 13.949669095662058 1.3322010229129222 0 0 1
4022 1 7.644433479192497 13.431502268141468 0.5374992050011032 0 0 1
365 1 8.330469545202737 14.303592254802671 0.30506800630137976 0 0 0
3619 1 8.90375464099205 13.379795260119963 0.3427978155472865 0 0 1
800 1 9.356974651508134 14.118735955120712 0.8197793395362079 0 -1 0
741 1 8.79661397827717 13.459518022244781 1.3625823808728454 0 0 0
372 1 10.493655424073456 13.528796247406758 0.8276266059203192 0 0 0
335 1 11.298370135597509 14.266200382994938 0.13007756415301736 0 0 0
709 1 11.435521994195733 13.768891115898812 1.152502003941248 0 0 0
2985 1 12.382913407151024 14.232816296298875 0.9689215227345026 -1 -1 1
334 1 12.19916244947036 13.344377883923883 0.4917652817607072 0 0 0
374 1 12.394344595739234 14.359899306160715 0.05251166384976713 0 -1 0
347 1 13.226261847852392 13.760243551616638 1.1504017340602026 0 0 0
4004 1 14.2123871725079 13.495691548441068 1.398654394776877 -1 0 1
4093 1 14.02211004732338 14.11013659525079 0.4478198953755254 -1 -1 1
4058 1 13.093884659261818 13.58204296424131 0.06477950118504595 0 0 0
3664 1 15.213755923080637 13.204581355509001 0.08273605263159514 -1 0 1
4063 1 14.915649736517866 14.261775871338708 0.07608661169718943 -1 0 1
281 1 15.342559899254665 13.891196166131284 1.0242168954772783 -1 0 0
3698 1 0.23245041671480057 15.410414537210192 1.2946522190464664 1 0 0
3384 1 0.6244543029620333 15.058292611075137 0.11592296178131216 1 -1 1
1136 1 1.3380573822900774 14.79231669698568 1.3512073215192926 0 -1 0
726 1 2.4470602080580464 14.84381870292978 0.8368650703981271 0 0 0
454 1 1.497616326589367 15.545817402303651 0.574413272539433 0 -1 0
3776 1 3.7488105093227713 15.645908884157762 0.18883457835116685 0 -1 1
424 1 3.6845389682817915 14.677988444512257 1.0154841389368283 0 -1 0
730 1 3.166258171092867 15.669931910040509 1.2074668238905821 0 -1 0
4039 1 4.54465821179256 15.355923164134516 0.7551253803433473 0 0 1
4046 1 5.549992987276013 14.796033478714913 1.4309904685746437 0 0 1
763 1 5.743013097876133 15.687888193161763 0.6703554545079238 0 -1 0
3755 1 6.767011527955618 15.415775292550407 0.8721171715741648 0 -1 1
3646 1 6.056531777127853 14.651649302486735 0.6182870926813518 0 0 1
360 1 7.355824937529783 14.651268377948188 0.5799310454409581 0 0 0
733 1 8.579202003497157 14.622970519206635 1.3205717672533603 0 -1 0
4080 1 8.158136903076386 15.368741209646927 0.6924355767693576 0 0 1
1116 1 9.212347258121651 15.497728745697097 1.0853970470013448 0 0 0
58 1 10.072125116392444 15.58029115941818 0.4739963455271258 0 -1 0
3986 1 9.173712158703077 14.871667647449408 0.23253961889854247 0 0 0
406 1 11.516307833153176 15.929116296566633 1.0108304026985038 0 -1 0
368 1 10.384582722366739 14.547008836378254 0.7614843587444827 0 0 1
31 1 11.341376633877013 14.854463594900073 1.0154148405441736 0 -1 1
802 1 10.640047449205289 15.521470730876128 1.3582090761945544 0 -1 0
3662 1 10.92244678157514 15.162659915456533 0.059904068283329344 0 0 1
3729 1 12.125431991337184 15.224995071539535 0.5409453511766713 0 0 1
4027 1 13.115068690614372 14.833505398682004 0.597392421305598 0 0 1
384 1 13.50604930543231 15.538583565726764 1.2836876288478942 0 -1 0
3690 1 14.02723349497704 15.230307505391398 0.2567866682076009 0 0 1
720 1 14.421107298849796 15.879099523603351 0.9926794566393706 -1 0 0
35 1 14.64740817444091 14.723423579038482 1.0215880717842833 0 -1 0
414 1 15.47787908466505 15.120688158850946 0.5733782455347503 -1 -1 0
776 1 0.09152592507125713 0.35900580234887386 1.915806813374881 1 0 0
417 1 1.0355263276569457 0.6176261768791224 2.284798051029512 1 0 0
3672 1 1.65166753743749 0.5941574261366233 1.4945552014327605 0 1 1
1104 1 2.535531451290601 0.6028255441838826 2.013203401156339 0 0 0
750 1 1.7635944707742366 0.033902309783490264 2.4770362238570267 1 0 0
43 1 2.031857032376171 1.1024004398035132 2.7367068034935844 0 0 0
1850 1 3.88589020983136 0.8360303802164101 1.658111855791582 0 1 0
1174 1 3.095095148293288 1.2223769216084828 2.517440808974701 0 0 0
1581 1 3.4035455524020644 0.13816103467581284 2.322858527159652 0 0 0
757 1 4.340712728266996 1.4450989323167698 2.352694020612955 0 0 0
1101 1 4.71134302263558 0.4820616150027186 2.299265955446929 0 0 0
1141 1 5.418593769788457 1.279906546231623 2.210444768804744 0 0 0
759 1 5.7813889622789905 0.3649619113504049 2.452874307355684 0 0 0
793 1 6.240355232891675 0.37972457537307575 1.4752180722462023 0 0 0
1100 1 6.778123208529103 0.05562626758635104 2.6289277562407216 0 0 0
47 1 6.557789820347561 1.064209332550127 2.2137524045565278 0 0 0
467 1 7.154730561403206 1.4441402926443307 2.890873349856288 0 0 0
765 1 7.26301865554115 0.01614606875561736 1.7853466984302908 0 0 0
434 1 7.802891405124753 0.8591988516493039 2.0452145541521816 0 0 0
502 1 8.829013548650808 0.8172904241611484 1.7207623940141086 0 0 0
56 1 9.649804842253824 1.3174063293165699 1.8315783675388269 0 0 0
866 1 9.136878170322333 0.7644270039422664 2.8987565143011595 0 0 0
409 1 9.47878288155709 0.008199474720704814 2.02908216507992 0 1 0
4088 1 10.718987625020825 0.459660257257486 1.7395802973221741 0 0 0
373 1 10.37842024663752 0.7768519345061444 2.6727663746611303 0 1 1
402 1 11.52814484503496 0.79207613364868 2.1667750978081024 0 0 0
57 1 12.385571570957191 0.1544523728649062 1.634441261382654 0 0 1
805 1 12.659116630517321 0.9195687587179426 2.127676341592943 0 0 0
746 1 13.442171828002362 0.6433857065046626 2.8187921642681055 0 1 0
719 1 14.091900997709182 0.30361620331872496 2.1079971239180635 -1 1 0
32 1 13.647519775675237 1.2675031835682529 2.042021253395722 -1 0 0
876 1 14.813855711830833 1.0480729250763086 2.2714012683067124 0 0 0
351 1 15.287677865660816 0.7931953999031353 1.455495428939284 -1 0 0
451 1 15.056134219561748 0.03826267030201073 2.6402393570691336 0 0 0
810 1 15.884511624852358 1.1819449810580727 2.467768475596172 0 0 0
5 1 0.6107002842222489 1.4726387045613658 1.6661720014486985 0 0 0
3773 1 1.2677374056146005 2.3708620769536344 1.7153600008517496 0 0 0
452 1 0.8131627581151453 1.8423794285714745 2.5942589859396668 1 0 0
492 1 0.2516187515054472 2.532640916979611 1.8586411232017246 0 0 0
820 1 0.8462454710374696 2.8977756018611354 2.7492438544454143 1 0 0
388 1 1.6568572422332557 1.524740984770998 1.7360176613633242 0 0 0
422 1 1.74540044910197 2.410249419108659 2.7735860018975527 0 0 0
3835 1 2.431120400774227 2.2278259283366943 1.953638296389117 0 0 1
40 1 3.024120829503828 1.5788547719632127 1.4625699233940168 0 0 0
787 1 3.6258657908677803 2.125280606985743 2.2791601511723325 0 0 0
460 1 4.535618468644948 2.393308900216499 2.6970430742281444 0 0 0
3775 1 5.014954515557293 2.197450766021938 1.880738579431617 0 0 0
3844 1 6.919494439186275 2.8605129727235705 1.6901897822935104 0 0 1
48 1 5.923606773053335 2.164866250529697 2.2583531115415214 0 0 0
468 1 6.911032651524134 2.438565030678975 2.693507557610935 0 0 0
1097 1 7.564896056568153 1.8700057839611663 2.10378655053601 0 0 0
116 1 8.471920132796761 2.140086577320732 1.5382953828584196 0 0 0
84 1 7.922569781840448 2.841391756666705 2.1609915226720995 0 0 0
1249 1 8.557672088385857 1.619308106050354 2.4109064751275593 0 0 0
3883 1 9.542322229747148 2.394440632920554 1.684220779661446 0 0 0
1557 1 8.864672712594604 2.6327061185272034 2.6055452328499147 0 0 0
471 1 9.96184654416593 1.9508349559034084 2.4626015436915054 0 0 0
835 1 10.948237860508236 1.5748113966985342 2.2632901766614584 0 0 0
472 1 10.806832706048553 2.5012639025757877 2.826572716715992 0 0 0
439 1 10.904043193109255 2.363208656194417 1.6289157655232265 0 0 0
838 1 11.92095953698981 1.8407528274324458 1.7844661800495143 0 0 0
3789 1 11.800622084898622 1.6111723816299495 2.813139301700934 0 0 0
1256 1 12.737711912098542 1.8943215632518835 2.3947352766059793 0 0 0
941 1 11.763081470197527 2.8111200866726875 2.279755492457064 0 0 0
4092 1 13.528381646023393 2.4470998745281745 2.081048168681815 -1 1 0
1260 1 14.223623304407981 1.6479913135911273 2.8693907453818883 0 0 0
917 1 14.615364350065995 1.969863626751148 1.6379906348474573 -1 0 0
473 1 14.566426188442092 2.5910795662033683 2.503024705351177 0 0 0
1093 1 15.630347540228474 1.8390996811912956 1.768190137931091 -1 1 0
456 1 15.90847682814771 2.635893196955991 2.874031442710443 -1 0 0
486 1 0.39454621319249966 3.5620181271410445 1.746215992686005 0 0 0
3797 1 1.3203095070085327 3.6190444317402437 2.140113725916208 0 0 1
393 1 0.24623676555726917 3.7848517886849704 2.6807967860997026 0 0 0
14 1 2.1815014174895837 3.282269660077481 1.626402999279899 0 0 0